/*--------------------------------*- C++ -*----------------------------------*\
| =========                 |                                                 |
| \\      /  F ield         | OpenFOAM: The Open Source CFD Toolbox           |
|  \\    /   O peration     | Version:  5.x                                   |
|   \\  /    A nd           | Web:      www.OpenFOAM.org                      |
|    \\/     M anipulation  |                                                 |
\*---------------------------------------------------------------------------*/
FoamFile
{
    version     2.0;
    format      ascii;
    class       volScalarField;
    location    "0.025";
    object      p;
}
// * * * * * * * * * * * * * * * * * * * * * * * * * * * * * * * * * * * * * //

dimensions      [0 2 -2 0 0 0 0];

internalField   nonuniform List<scalar> 
7200
(
9.47431e-05
0.0650003
0.178916
0.190398
0.445951
0.152445
1.13759
-0.771594
3.91757
-6.19304
16.5911
-31.2002
61.8527
-87.3313
77.753
0.00209901
0.0710366
0.186419
0.209002
0.447349
0.216621
1.0529
-0.460337
3.27051
-4.52265
12.9929
-23.7864
50.0005
-74.0611
71.9751
0.00420682
0.0762407
0.194485
0.223429
0.456056
0.257052
1.0226
-0.291109
2.95814
-3.63828
11.0716
-19.4666
42.4452
-64.6661
67.9422
0.00617863
0.0815897
0.202343
0.237935
0.46522
0.294659
1.00245
-0.152748
2.73235
-2.97969
9.70248
-16.3163
36.7066
-56.9595
64.2636
0.00807401
0.0873107
0.210355
0.253242
0.475002
0.332312
0.98776
-0.0274006
2.55075
-2.4313
8.60958
-13.7644
31.9583
-50.1932
60.8359
0.00994008
0.0933323
0.21865
0.269112
0.485829
0.369417
0.979159
0.0853468
2.40908
-1.97877
7.75191
-11.7184
28.0937
-44.2947
57.6764
0.0118038
0.0996055
0.22726
0.285421
0.497775
0.405911
0.976115
0.187647
2.29981
-1.60218
7.08261
-10.0807
24.9982
-39.1975
54.7624
0.0136868
0.106109
0.236212
0.302135
0.510834
0.441982
0.977846
0.282064
2.21537
-1.28131
6.55577
-8.74956
22.5308
-34.8045
52.0656
0.0156063
0.112827
0.245525
0.319231
0.524997
0.47779
0.983746
0.370512
2.15038
-1.00094
6.13741
-7.64552
20.5673
-31.0254
49.5628
0.0175746
0.119745
0.255209
0.336692
0.540238
0.51346
0.99335
0.454409
2.10114
-0.749822
5.80272
-6.70903
19.0029
-27.7805
47.2343
0.0195999
0.126848
0.265264
0.354498
0.556523
0.54909
1.00628
0.534852
2.06507
-0.519664
5.53313
-5.89572
17.7489
-24.9984
45.0626
0.0216875
0.134123
0.275684
0.37263
0.573806
0.584755
1.02225
0.612704
2.04037
-0.304565
5.3146
-5.17352
16.7309
-22.6143
43.0322
0.0238397
0.141553
0.286453
0.391065
0.592033
0.620508
1.04098
0.688628
2.02569
-0.100537
5.13633
-4.52024
15.8877
-20.5702
41.1294
0.0260565
0.149121
0.29755
0.409773
0.611139
0.656375
1.06227
0.763113
2.01995
0.0948925
4.98983
-3.92128
15.1701
-18.8144
39.3418
0.0283353
0.156807
0.308945
0.428718
0.631047
0.692354
1.08588
0.836475
2.02213
0.283018
4.86817
-3.3677
14.5394
-17.3013
37.6582
0.0306715
0.164589
0.320599
0.44785
0.651664
0.728414
1.11158
0.908856
2.03117
0.464256
4.76546
-2.85452
13.9663
-15.9908
36.0686
0.0330581
0.172438
0.332467
0.467112
0.672882
0.764482
1.13907
0.980226
2.04593
0.638339
4.67673
-2.37949
13.4289
-14.848
34.5638
0.0354862
0.180327
0.344494
0.486432
0.694569
0.800448
1.16802
1.05039
2.06517
0.804521
4.59757
-1.94184
12.9123
-13.8434
33.1359
0.0379448
0.188218
0.356614
0.505723
0.716574
0.836155
1.19806
1.11901
2.08754
0.961813
4.52416
-1.54158
12.4065
-12.9516
31.7774
0.0404211
0.196073
0.368756
0.524884
0.73872
0.871402
1.22872
1.1856
2.11164
1.10908
4.45314
-1.17882
11.9058
-12.1518
30.4818
0.0429003
0.203849
0.380836
0.543798
0.760811
0.905946
1.2595
1.24962
2.13607
1.24518
4.3817
-0.853452
11.4077
-11.4266
29.2434
0.0453661
0.211496
0.392765
0.562335
0.782626
0.939508
1.28988
1.3104
2.15946
1.36906
4.30758
-0.564897
10.9119
-10.7623
28.0569
0.0478006
0.218962
0.404442
0.580353
0.803928
0.971777
1.31927
1.36731
2.18052
1.47986
4.22904
-0.312009
10.4194
-10.1477
26.918
0.0501848
0.226193
0.415765
0.597696
0.824465
1.00242
1.34712
1.41969
2.19807
1.57691
4.14489
-0.0930919
9.93248
-9.57437
25.8226
0.0524986
0.233129
0.426624
0.614205
0.84398
1.03111
1.37285
1.46692
2.21111
1.65983
4.05444
0.0940356
9.45353
-9.03583
24.7674
0.0547215
0.239711
0.436907
0.629714
0.862211
1.0575
1.39593
1.50848
2.21885
1.72852
3.95745
0.251922
8.98511
-8.52725
23.7495
0.0568327
0.245878
0.446502
0.644062
0.878908
1.08127
1.41589
1.54392
2.22066
1.7831
3.8541
0.383352
8.52958
-8.04518
22.7665
0.0588115
0.251572
0.455301
0.657089
0.893828
1.10214
1.43231
1.57291
2.21614
1.824
3.74487
0.491213
8.08891
-7.58719
21.8164
0.0606382
0.256734
0.463198
0.668647
0.906754
1.11985
1.44484
1.59522
2.20509
1.85183
3.63051
0.578377
7.66466
-7.15163
20.8975
0.0622937
0.261312
0.470098
0.6786
0.917492
1.13419
1.45324
1.61079
2.18751
1.86739
3.51191
0.647593
7.2579
-6.73737
20.0083
0.0637607
0.265256
0.475914
0.686832
0.925882
1.14499
1.45732
1.61962
2.16353
1.87164
3.39009
0.701419
6.86924
-6.34365
19.1479
0.0650237
0.268523
0.480571
0.693244
0.931796
1.15217
1.457
1.62188
2.13347
1.86561
3.26608
0.742167
6.49891
-5.96994
18.3152
0.0660693
0.27108
0.484009
0.697764
0.935148
1.15567
1.45228
1.61779
2.09774
1.8504
3.14089
0.771876
6.14679
-5.6158
17.5097
0.0668867
0.272896
0.486182
0.700343
0.935888
1.1555
1.44324
1.6077
2.05682
1.82711
3.01546
0.792306
5.81248
-5.28083
16.7306
0.0674678
0.273955
0.487063
0.700956
0.934007
1.15172
1.43003
1.592
2.01129
1.79685
2.89065
0.804948
5.4954
-4.96459
15.9776
0.0678071
0.274244
0.486637
0.699607
0.929533
1.14444
1.41285
1.57114
1.96174
1.76065
2.76719
0.811051
5.19484
-4.66659
15.2502
0.0679021
0.273765
0.484909
0.696322
0.922529
1.13382
1.39196
1.54561
1.90876
1.71951
2.64573
0.811645
4.91
-4.38628
14.5481
0.0677533
0.272523
0.481899
0.691151
0.91309
1.12005
1.36766
1.51593
1.85296
1.67433
2.52675
0.807577
4.64006
-4.12303
13.8709
0.0673639
0.270537
0.477643
0.684167
0.90134
1.10334
1.34026
1.4826
1.79493
1.62594
2.41067
0.799549
4.38423
-3.87613
13.2183
0.0667395
0.267831
0.472189
0.675462
0.887427
1.08395
1.31012
1.44614
1.7352
1.57508
2.29777
0.788141
4.14172
-3.64482
12.5899
0.0658887
0.264437
0.465599
0.665143
0.871517
1.06214
1.27758
1.40706
1.67429
1.5224
2.18828
0.773846
3.9118
-3.4283
11.9854
0.0648217
0.260394
0.457947
0.653334
0.853793
1.03817
1.243
1.36583
1.61267
1.46849
2.08234
0.757092
3.69379
-3.22575
11.4044
0.0635513
0.255746
0.449313
0.640166
0.834449
1.01233
1.20672
1.3229
1.55075
1.41382
1.98005
0.738257
3.48708
-3.03632
10.8463
0.0620914
0.250544
0.439789
0.625783
0.813685
0.984901
1.16909
1.2787
1.48892
1.35886
1.88145
0.717682
3.29108
-2.85918
10.3106
0.0604578
0.24484
0.429469
0.610332
0.791706
0.956153
1.13043
1.23363
1.4275
1.30395
1.78657
0.695688
3.10528
-2.69349
9.7968
0.0586673
0.238692
0.418452
0.593964
0.768717
0.926357
1.09105
1.18803
1.3668
1.24944
1.6954
0.67257
2.9292
-2.53844
9.3043
0.0567374
0.232158
0.406842
0.576832
0.74492
0.895774
1.05124
1.14225
1.30708
1.1956
1.60793
0.648612
2.76238
-2.39325
8.83242
0.0546863
0.225297
0.394741
0.559088
0.720515
0.864652
1.01128
1.09658
1.24856
1.14268
1.52412
0.624079
2.6044
-2.25716
8.38049
0.0525327
0.218171
0.382253
0.54088
0.695693
0.833225
0.971412
1.05129
1.19144
1.09089
1.44394
0.599222
2.45487
-2.12947
7.94776
0.0502954
0.21084
0.36948
0.522355
0.670638
0.801717
0.931871
1.00662
1.13589
1.04041
1.36734
0.574278
2.31341
-2.00948
7.53349
0.0479929
0.203363
0.356522
0.503655
0.645528
0.770333
0.892869
0.962786
1.08206
0.991398
1.2943
0.549465
2.17963
-1.89655
7.1369
0.0456439
0.195799
0.343476
0.484913
0.620528
0.739267
0.854601
0.91999
1.03009
0.944005
1.22475
0.524986
2.0532
-1.79008
6.75719
0.0432664
0.188204
0.330436
0.466261
0.595795
0.708698
0.817243
0.878401
0.980068
0.89835
1.15866
0.501025
1.93375
-1.6895
6.39356
0.0408783
0.180634
0.317493
0.44782
0.571477
0.678791
0.780956
0.838175
0.932108
0.854538
1.09597
0.477749
1.82095
-1.59427
6.04518
0.0384967
0.173141
0.304731
0.429706
0.547711
0.649697
0.745885
0.79945
0.886289
0.812664
1.03664
0.45531
1.71448
-1.5039
5.71126
0.0361383
0.165775
0.292233
0.412028
0.524624
0.621556
0.712161
0.762349
0.842684
0.772809
0.98062
0.433842
1.61402
-1.41791
5.39097
0.0338188
0.158585
0.280075
0.394889
0.502336
0.594497
0.679903
0.726981
0.801355
0.735046
0.927853
0.413464
1.51925
-1.33588
5.08354
0.0315538
0.151616
0.26833
0.378383
0.480956
0.568636
0.64922
0.693447
0.762358
0.699437
0.878294
0.394285
1.4299
-1.25739
4.78819
0.0293577
0.14491
0.257066
0.362601
0.460587
0.544082
0.620211
0.661835
0.725743
0.666039
0.831898
0.376399
1.34568
-1.18207
4.50417
0.0272445
0.138509
0.246348
0.347625
0.441322
0.520935
0.592964
0.632228
0.691556
0.634905
0.788622
0.359894
1.26633
-1.10958
4.23077
0.0252274
0.13245
0.236234
0.333532
0.423251
0.499285
0.567565
0.6047
0.659838
0.606082
0.74843
0.344848
1.19163
-1.03959
3.96732
0.0233192
0.126769
0.226782
0.320397
0.406454
0.479218
0.544089
0.579321
0.630631
0.579619
0.71129
0.331338
1.12134
-0.97181
3.7132
0.0215317
0.1215
0.218044
0.308285
0.391008
0.460815
0.522611
0.556161
0.603976
0.555562
0.67718
0.319436
1.05527
-0.905976
3.46783
0.0198763
0.116675
0.210069
0.29726
0.376985
0.444151
0.5032
0.535283
0.579917
0.533962
0.646088
0.309214
0.993277
-0.841849
3.23072
0.018364
0.112323
0.202904
0.287383
0.364452
0.429297
0.485924
0.516753
0.558501
0.514872
0.618014
0.300746
0.935214
-0.779214
3.00143
0.0170049
0.108473
0.196592
0.278709
0.353473
0.416321
0.470849
0.500636
0.539776
0.498352
0.592971
0.294112
0.880988
-0.717888
2.77964
0.0158088
0.105151
0.191174
0.271292
0.34411
0.40529
0.45804
0.486998
0.5238
0.484467
0.570987
0.289395
0.830542
-0.657715
2.5651
0.0147848
0.102381
0.186689
0.26518
0.336419
0.396268
0.447563
0.47591
0.510634
0.473291
0.552106
0.286689
0.783859
-0.59857
2.3577
0.0139416
0.100186
0.183173
0.260422
0.330458
0.389318
0.439483
0.467442
0.500345
0.464906
0.536389
0.286095
0.74097
-0.540363
2.15747
0.0132873
0.0985879
0.180658
0.257061
0.326279
0.384501
0.433867
0.461668
0.493011
0.459405
0.523917
0.287728
0.701953
-0.483038
1.9646
0.0128294
0.0976065
0.179177
0.25514
0.323933
0.381877
0.430781
0.458668
0.488712
0.456891
0.514786
0.291714
0.666941
-0.426582
1.77947
0.0125747
0.0972597
0.178757
0.254698
0.323469
0.381503
0.430293
0.45852
0.487536
0.457474
0.509112
0.298193
0.63612
-0.371029
1.60272
0.0125294
0.0975637
0.179426
0.255769
0.32493
0.383436
0.432467
0.461307
0.489579
0.461277
0.507028
0.307318
0.609735
-0.316469
1.43523
0.0126988
0.0985327
0.181205
0.258387
0.32836
0.38773
0.437372
0.467113
0.494938
0.46843
0.508682
0.31926
0.588088
-0.263064
1.27822
0.0130877
0.100179
0.184115
0.26258
0.333797
0.394434
0.44507
0.476023
0.503716
0.479071
0.51424
0.3342
0.571552
-0.211077
1.13332
0.0136985
0.102508
0.188166
0.268363
0.341262
0.403582
0.455605
0.4881
0.515997
0.493321
0.523853
0.352304
0.560544
-0.160924
1.00264
0.0145306
0.105517
0.193352
0.275731
0.350753
0.415177
0.468989
0.503375
0.531822
0.511271
0.537627
0.373751
0.555432
-0.113055
0.88864
0.0156018
0.109262
0.199771
0.284822
0.36245
0.429444
0.48549
0.522176
0.551543
0.533378
0.555969
0.39918
0.556792
-0.0676279
0.794361
0.0169769
0.113962
0.207795
0.296166
0.377042
0.44723
0.506122
0.545643
0.576508
0.560933
0.580704
0.429429
0.567916
-0.027461
0.727042
0.0183634
0.118683
0.215871
0.307617
0.391864
0.465351
0.527426
0.569723
0.603208
0.588696
0.61039
0.455588
0.595388
-0.0110194
0.7022
-77.8147
87.272
-61.9131
31.1335
-16.6553
6.12534
-3.98407
0.703882
-1.20492
-0.220198
-0.513744
-0.258481
-0.247286
-0.133849
-0.0694391
0.0212934
0.0857041
0.199164
0.210348
0.465706
0.172081
1.15718
-0.751991
3.93711
-6.17387
16.6093
-31.1838
61.8668
-87.3205
77.759
-72.0373
74.001
-50.0602
23.7202
-13.0571
4.4553
-3.33701
0.39273
-1.12023
-0.284333
-0.515115
-0.277044
-0.254732
-0.139778
-0.0711866
0.0230309
0.0916234
0.206601
0.228906
0.467069
0.236232
1.07247
-0.440777
3.28993
-4.50377
13.0106
-23.7706
50.0138
-74.0512
71.9805
-68.0047
64.6053
-42.5045
19.4011
-11.1355
3.57124
-3.02454
0.223603
-1.0899
-0.324719
-0.52378
-0.291417
-0.262723
-0.144843
-0.07303
0.0248592
0.096674
0.214578
0.243268
0.475724
0.276622
1.04213
-0.27163
2.97738
-3.61976
11.0887
-19.4516
42.4576
-64.6572
67.947
-64.3263
56.8981
-36.7656
16.2513
-9.76612
2.91298
-2.79861
0.0853631
-1.06969
-0.362269
-0.532892
-0.305858
-0.270492
-0.150037
-0.0747535
0.0265612
0.101846
0.222326
0.257692
0.48482
0.314168
1.02191
-0.133398
2.75133
-2.96161
9.71895
-16.3021
36.718
-56.9515
64.2681
-60.8988
50.1311
-32.0173
13.6999
-8.6729
2.36493
-2.61682
-0.0398352
-1.05492
-0.39985
-0.542609
-0.321088
-0.278403
-0.155598
-0.0764372
0.0282155
0.107379
0.230209
0.272896
0.494514
0.351734
1.00711
-0.00823904
2.5694
-2.41374
8.62535
-13.751
31.9688
-50.1859
60.84
-57.7394
44.232
-28.1527
11.6544
-7.81489
1.91276
-2.47493
-0.152408
-1.04621
-0.436868
-0.553359
-0.336871
-0.286588
-0.161464
-0.078121
0.0298613
0.113207
0.238357
0.288645
0.50523
0.388721
0.998348
0.10426
2.42733
-1.96179
7.76695
-11.7059
28.1034
-44.288
57.6803
-54.8255
39.1342
-25.0573
10.017
-7.14528
1.53652
-2.3654
-0.25451
-1.04304
-0.473258
-0.565214
-0.353084
-0.295082
-0.167588
-0.079822
0.0315149
0.119284
0.246805
0.304813
0.517039
0.425064
0.995101
0.206252
2.3176
-1.58582
7.09692
-10.0689
25.0072
-39.1913
54.766
-52.1288
34.7407
-22.5901
8.68604
-6.61815
1.21598
-2.28069
-0.34871
-1.04462
-0.509208
-0.578171
-0.369692
-0.303914
-0.173947
-0.0815546
0.0331901
0.125586
0.25558
0.321365
0.529937
0.460948
0.996581
0.300306
2.23265
-1.2656
6.56936
-8.7385
22.5391
-34.7988
52.069
-49.6261
30.9612
-20.6268
7.58213
-6.19953
0.935923
-2.21543
-0.436926
-1.05034
-0.54488
-0.592219
-0.386675
-0.313103
-0.180524
-0.0833306
0.0348981
0.132094
0.264699
0.338278
0.543909
0.496533
1.00219
0.388342
2.16712
-0.985884
6.1503
-7.63514
20.575
-31.0201
49.5661
-47.2977
27.716
-19.0626
6.64569
-5.86463
0.685084
-2.16592
-0.520581
-1.05976
-0.580399
-0.607333
-0.404013
-0.322658
-0.187302
-0.0851592
0.0366474
0.138793
0.274173
0.355533
0.558932
0.531942
1.01145
0.471785
2.1173
-0.73542
5.81493
-6.69927
19.0102
-27.7756
47.2374
-45.1261
24.9336
-17.8088
5.83237
-5.59486
0.455177
-2.12959
-0.60078
-1.0725
-0.615866
-0.623479
-0.421688
-0.33258
-0.194267
-0.0870463
0.0384438
0.145666
0.284002
0.373111
0.574968
0.567276
1.024
0.551742
2.08065
-0.505909
5.54469
-5.88654
17.7557
-24.9937
45.0656
-43.0959
22.5492
-16.791
5.11011
-5.37619
0.240297
-2.10463
-0.678387
-1.08825
-0.651356
-0.640613
-0.439682
-0.342862
-0.201401
-0.0889956
0.0402906
0.152697
0.294177
0.390992
0.591974
0.602611
1.03955
0.629081
2.05534
-0.291442
5.32555
-5.16487
16.7373
-22.6099
43.0351
-41.1934
20.5049
-15.9479
4.45673
-5.19783
0.0364522
-2.08972
-0.754073
-1.10677
-0.686924
-0.658682
-0.457971
-0.353489
-0.208689
-0.0910082
0.042189
0.159869
0.304684
0.409152
0.609896
0.638001
1.05785
0.704475
2.04008
-0.0880223
5.14671
-4.51208
15.8937
-20.566
41.1322
-39.406
18.749
-15.2305
3.85764
-5.05126
-0.158826
-2.08377
-0.828328
-1.12785
-0.722599
-0.677621
-0.476525
-0.364438
-0.216112
-0.0930828
0.0441378
0.167164
0.3155
0.427563
0.62867
0.673478
1.07867
0.778421
2.03375
0.106825
4.99968
-3.91357
15.1758
-18.8105
39.3445
-37.7226
17.2357
-14.6
3.30392
-4.92957
-0.346829
-2.08575
-0.901471
-1.15125
-0.758383
-0.697354
-0.495309
-0.37568
-0.223649
-0.095216
0.0461341
0.174562
0.326596
0.446188
0.648222
0.709044
1.1018
0.85124
2.03536
0.294394
4.87752
-3.3604
14.5448
-17.2975
37.6608
-36.1333
15.9249
-14.027
2.79058
-4.82685
-0.527973
-2.09462
-0.973646
-1.17673
-0.794244
-0.717791
-0.514274
-0.387176
-0.231277
-0.0974023
0.0481728
0.182039
0.337933
0.464981
0.668461
0.74467
1.127
0.92308
2.04384
0.475104
4.77434
-2.8476
13.9714
-15.9871
36.0711
-34.6289
14.782
-13.4898
2.31538
-4.73813
-0.701983
-2.10923
-1.04482
-1.20402
-0.830112
-0.738823
-0.533362
-0.398879
-0.238968
-0.0996339
0.0502472
0.189569
0.349467
0.483884
0.68928
0.78029
1.15399
0.993916
2.05806
0.648686
4.68517
-2.37292
13.4338
-14.8445
34.5663
-33.2013
13.7771
-12.9733
1.87757
-4.659
-0.868116
-2.12834
-1.11481
-1.23278
-0.865878
-0.76032
-0.552502
-0.410735
-0.246691
-0.101901
0.0523486
0.197122
0.361143
0.502828
0.710554
0.815796
1.18244
1.06356
2.07679
0.814395
4.60561
-1.93559
12.9169
-13.84
33.1383
-31.8432
12.885
-12.4677
1.47713
-4.58564
-1.02537
-2.1506
-1.18326
-1.26262
-0.901385
-0.782131
-0.571608
-0.422678
-0.25441
-0.104192
0.0544665
0.204665
0.372898
0.521727
0.732132
0.851036
1.21197
1.13166
2.09867
0.971239
4.53182
-1.53562
12.411
-12.9483
31.7798
-30.548
12.0848
-11.9672
1.11419
-4.51468
-1.17263
-2.17461
-1.2497
-1.29309
-0.936434
-0.804081
-0.590577
-0.434635
-0.262086
-0.106492
0.0565889
0.212158
0.384662
0.540484
0.753842
0.885812
1.24214
1.19776
2.1223
1.11809
4.46045
-1.17312
11.9101
-12.1486
30.4842
-29.3099
11.3593
-11.4694
0.788626
-4.44332
-1.30872
-2.19896
-1.31357
-1.32371
-0.970782
-0.825972
-0.609294
-0.446524
-0.269674
-0.108787
0.058702
0.219559
0.396352
0.558984
0.775489
0.919884
1.27244
1.26129
2.14628
1.25379
4.38868
-0.847999
11.4119
-11.4235
29.2457
-28.1239
10.6946
-10.9738
0.499863
-4.3693
-1.43261
-2.22228
-1.37423
-1.35391
-1.00415
-0.847584
-0.627628
-0.458252
-0.277125
-0.111058
0.0607906
0.226821
0.407879
0.577099
0.796856
0.952976
1.30234
1.32161
2.16924
1.37729
4.31426
-0.559663
10.9159
-10.7592
28.0592
-26.9853
10.0796
-10.4816
0.246754
-4.29088
-1.54342
-2.24327
-1.43101
-1.38314
-1.03622
-0.86868
-0.645435
-0.469721
-0.284385
-0.113288
0.0628381
0.233893
0.419149
0.594688
0.817707
0.98478
1.33126
1.37807
2.18988
1.48773
4.23544
-0.306974
10.4233
-10.1447
26.9202
-25.8903
9.5059
-9.99503
0.0275989
-4.20687
-1.6405
-2.26078
-1.48327
-1.41082
-1.06667
-0.889006
-0.66256
-0.480826
-0.291398
-0.115455
0.0648268
0.240721
0.430056
0.611599
0.837795
1.01497
1.35865
1.43002
2.20704
1.58446
4.15103
-0.0882375
9.93626
-9.57143
25.8248
-24.8354
8.96693
-9.51643
-0.159784
-4.11657
-1.72347
-2.27379
-1.53039
-1.43639
-1.09516
-0.908305
-0.678843
-0.491455
-0.298104
-0.11754
0.0667381
0.247249
0.440495
0.627673
0.856863
1.0432
1.38394
1.47684
2.21972
1.66707
4.06034
0.0987266
9.45721
-9.03293
24.7696
-23.8179
8.45791
-9.04839
-0.317943
-4.01977
-1.79221
-2.2815
-1.57184
-1.45931
-1.12135
-0.926316
-0.694119
-0.501498
-0.304444
-0.119519
0.0685531
0.253418
0.450356
0.642749
0.874652
1.06915
1.4066
1.518
2.2271
1.73546
3.96313
0.256465
8.98871
-8.52439
23.7518
-22.8352
7.97542
-8.59324
-0.449661
-3.91661
-1.84687
-2.28329
-1.60718
-1.47912
-1.14493
-0.942785
-0.708222
-0.510841
-0.310355
-0.121373
0.0702524
0.259169
0.459527
0.656665
0.890912
1.09249
1.42614
1.55306
2.22858
1.78978
3.85958
0.38776
8.5331
-8.04236
22.7688
-21.8854
7.51701
-8.15297
-0.557825
-3.8076
-1.88785
-2.27877
-1.63607
-1.49538
-1.16559
-0.957471
-0.720995
-0.519375
-0.315777
-0.123078
0.071817
0.264445
0.467903
0.669264
0.905403
1.11294
1.44216
1.58168
2.22374
1.83042
3.75016
0.4955
8.09237
-7.5844
21.8186
-20.9667
7.08104
-7.72912
-0.645301
-3.69348
-1.91578
-2.26773
-1.6583
-1.50776
-1.18309
-0.970155
-0.732287
-0.526994
-0.320653
-0.124614
0.0732285
0.269191
0.475379
0.680397
0.917907
1.13024
1.45431
1.60365
2.2124
1.85801
3.63563
0.582551
7.66806
-7.14887
20.8997
-20.0778
6.66639
-7.32276
-0.714836
-3.57513
-1.93145
-2.25016
-1.67377
-1.516
-1.19721
-0.980643
-0.741964
-0.533601
-0.324929
-0.125963
0.0744694
0.273352
0.481862
0.689933
0.928233
1.14418
1.46233
1.61888
2.19453
1.87335
3.51687
0.651665
7.26124
-6.73463
20.0105
-19.2176
6.27231
-6.9345
-0.768985
-3.45358
-1.93583
-2.22621
-1.68253
-1.51992
-1.20781
-0.988775
-0.749907
-0.53911
-0.328554
-0.127106
0.0755237
0.276884
0.487264
0.697754
0.93622
1.1546
1.46606
1.6274
2.1703
1.87739
3.3949
0.705398
6.87253
-6.34094
19.1501
-18.3851
5.89827
-6.56455
-0.810052
-3.32984
-1.92993
-2.19619
-1.68471
-1.51945
-1.21476
-0.994423
-0.75602
-0.543445
-0.331487
-0.128027
0.0763772
0.279743
0.491514
0.703764
0.941743
1.1614
1.4654
1.62935
2.13999
1.87117
3.27075
0.746059
6.50215
-5.96726
18.3174
-17.5797
5.54382
-6.2128
-0.840074
-3.20492
-1.91486
-2.1605
-1.68056
-1.51459
-1.21804
-0.997501
-0.760229
-0.546548
-0.333692
-0.128713
0.0770178
0.281896
0.494552
0.70789
0.944714
1.16454
1.46035
1.62498
2.10401
1.85577
3.14543
0.775686
6.14998
-5.61314
17.5119
-16.8008
5.20858
-5.87883
-0.860804
-3.07977
-1.89173
-2.11964
-1.6704
-1.5054
-1.21764
-0.997961
-0.762485
-0.548372
-0.335142
-0.129155
0.0774358
0.283315
0.496333
0.710085
0.945085
1.16403
1.451
1.61462
2.06287
1.83232
3.01988
0.79604
5.81563
-5.27819
16.7328
-16.0478
4.8921
-5.56208
-0.873733
-2.95524
-1.86162
-2.07417
-1.65464
-1.49204
-1.21363
-0.995792
-0.762767
-0.54889
-0.335818
-0.129344
0.0776239
0.283984
0.496829
0.710324
0.942846
1.15991
1.43749
1.59866
2.01713
1.80189
2.89495
0.808611
5.49851
-4.96197
15.9797
-15.3205
4.59389
-5.2618
-0.880102
-2.83205
-1.82557
-2.02468
-1.63373
-1.47471
-1.20613
-0.991026
-0.761077
-0.54809
-0.335713
-0.129277
0.0775777
0.283892
0.496028
0.708611
0.938027
1.15232
1.42002
1.57755
1.96738
1.76554
2.7714
0.814645
5.1979
-4.664
15.2523
-14.6185
4.31341
-4.97723
-0.880938
-2.71085
-1.78458
-1.97177
-1.60815
-1.45368
-1.19527
-0.983726
-0.757443
-0.545979
-0.334826
-0.128953
0.0772956
0.283039
0.493935
0.704973
0.930689
1.14139
1.39886
1.55179
1.91421
1.72425
2.64983
0.815173
4.91302
-4.38372
14.5502
-13.9413
4.05002
-4.70753
-0.877087
-2.59211
-1.73955
-1.91605
-1.57842
-1.42924
-1.18127
-0.973988
-0.751919
-0.542577
-0.333168
-0.128374
0.0767786
0.281435
0.49057
0.699461
0.920929
1.12732
1.37429
1.52188
1.85824
1.67894
2.53076
0.811042
4.64305
-4.12049
13.873
-13.2887
3.80301
-4.4519
-0.869247
-2.47625
-1.69129
-1.85808
-1.54505
-1.4017
-1.16434
-0.961938
-0.744578
-0.537922
-0.330756
-0.127546
0.0760305
0.279095
0.48597
0.692148
0.908869
1.11033
1.34665
1.48834
1.80003
1.63042
2.41458
0.802951
4.38717
-3.87361
13.2204
-12.6604
3.57164
-4.20956
-0.857997
-2.36355
-1.64056
-1.79842
-1.50855
-1.37143
-1.14472
-0.947725
-0.735514
-0.532067
-0.32762
-0.126477
0.0750575
0.276046
0.480182
0.683124
0.894658
1.09067
1.31627
1.45169
1.74014
1.57944
2.30159
0.791483
4.14462
-3.64233
12.592
-12.0558
3.35509
-3.97978
-0.843828
-2.25424
-1.58799
-1.73757
-1.46942
-1.33876
-1.12268
-0.931519
-0.724837
-0.525075
-0.323794
-0.125179
0.0738685
0.272319
0.47327
0.672498
0.878462
1.0686
1.2835
1.41241
1.67908
1.52665
2.19202
0.777129
3.91466
-3.42584
11.9875
-11.4747
3.15254
-3.76188
-0.827167
-2.14846
-1.53416
-1.67599
-1.42815
-1.30405
-1.0985
-0.913502
-0.712673
-0.517022
-0.319319
-0.123665
0.0724741
0.267954
0.465307
0.660393
0.860464
1.04438
1.2487
1.371
1.61731
1.47261
2.086
0.760317
3.69662
-3.22332
11.4064
-10.9165
2.96316
-3.55523
-0.808391
-2.04629
-1.47958
-1.61412
-1.38518
-1.26764
-1.07245
-0.893872
-0.699157
-0.507994
-0.314244
-0.121951
0.0708872
0.262996
0.456374
0.646942
0.840857
1.01831
1.21222
1.3279
1.55525
1.41785
1.98363
0.741424
3.48986
-3.03392
10.8483
-10.3807
2.78608
-3.35927
-0.787842
-1.94779
-1.42466
-1.55231
-1.34093
-1.22989
-1.04481
-0.87283
-0.684433
-0.498082
-0.308623
-0.120055
0.0691222
0.257495
0.446561
0.632286
0.819841
0.990649
1.17439
1.28353
1.49328
1.36277
1.88495
0.720793
3.29382
-2.8568
10.3126
-9.86675
2.6205
-3.17348
-0.76584
-1.85298
-1.36979
-1.49091
-1.2958
-1.19111
-1.01586
-0.850582
-0.668652
-0.487386
-0.302511
-0.117996
0.0671947
0.251503
0.435964
0.616574
0.797621
0.961685
1.13554
1.2383
1.43174
1.30777
1.79
0.698742
3.10798
-2.69114
9.79881
-9.37409
2.46559
-2.99737
-0.742681
-1.76185
-1.31528
-1.43022
-1.25015
-1.15161
-0.985877
-0.827336
-0.651968
-0.476007
-0.295969
-0.115795
0.0651215
0.245078
0.424682
0.599956
0.774402
0.931683
1.09598
1.19255
1.37092
1.25316
1.69875
0.675569
2.93186
-2.53612
9.30629
-8.90203
2.32057
-2.8305
-0.718649
-1.67438
-1.26143
-1.37049
-1.2043
-1.11169
-0.955111
-0.803296
-0.634536
-0.464053
-0.289059
-0.113474
0.0629202
0.238279
0.412817
0.582584
0.750385
0.900903
1.056
1.14663
1.31108
1.19923
1.61121
0.651556
2.765
-2.39096
8.8344
-8.4499
2.18468
-2.67244
-0.69401
-1.59055
-1.20847
-1.31194
-1.15856
-1.07162
-0.923817
-0.778661
-0.616509
-0.451627
-0.281844
-0.111053
0.060609
0.231164
0.400472
0.56461
0.72577
0.869592
1.01588
1.10082
1.25244
1.14622
1.52732
0.626969
2.60698
-2.2549
8.38244
-8.01695
2.05721
-2.52279
-0.669017
-1.51032
-1.15662
-1.25478
-1.1132
-1.03164
-0.892228
-0.753626
-0.598039
-0.438838
-0.274388
-0.108554
0.0582065
0.223794
0.387751
0.546184
0.700747
0.837987
0.975853
1.05539
1.19522
1.09434
1.44707
0.60206
2.45741
-2.12723
7.9497
-7.60245
1.93748
-2.38119
-0.643906
-1.43365
-1.10606
-1.19918
-1.06845
-0.991991
-0.860569
-0.728376
-0.579275
-0.425788
-0.266755
-0.106001
0.0557311
0.216231
0.374755
0.527451
0.675502
0.806308
0.936163
1.0106
1.13956
1.04377
1.37042
0.577063
2.31591
-2.00727
7.53542
-7.2056
1.82484
-2.24725
-0.618898
-1.3605
-1.05695
-1.14528
-1.02453
-0.952887
-0.829046
-0.703089
-0.560358
-0.412582
-0.259005
-0.103413
0.0532015
0.208532
0.361585
0.508552
0.65021
0.774762
0.89702
0.966647
1.08563
0.994683
1.2973
0.552199
2.18209
-1.89437
7.13881
-6.82562
1.71869
-2.12062
-0.594197
-1.29083
-1.00943
-1.09322
-0.981644
-0.91452
-0.797854
-0.677932
-0.541427
-0.399318
-0.251202
-0.100813
0.0506359
0.200756
0.348337
0.489621
0.625037
0.743541
0.858617
0.923736
1.03356
0.947212
1.2277
0.52767
2.05562
-1.78793
6.75908
-6.46169
1.61844
-2.00095
-0.569988
-1.22459
-0.963632
-1.0431
-0.939961
-0.877068
-0.767171
-0.653063
-0.522611
-0.386091
-0.243402
-0.0982209
0.0480523
0.19296
0.335105
0.470789
0.600139
0.712825
0.821131
0.882038
0.983451
0.90148
1.16154
0.50366
1.93613
-1.68738
6.39543
-6.11302
1.52357
-1.88792
-0.546441
-1.16173
-0.919659
-0.995032
-0.899636
-0.840692
-0.737164
-0.62863
-0.504035
-0.372994
-0.235663
-0.0956558
0.0454682
0.185199
0.321978
0.452177
0.575665
0.682778
0.784721
0.841707
0.935403
0.857596
1.0988
0.480337
1.8233
-1.59218
6.04704
-5.77877
1.43358
-1.78119
-0.523708
-1.10221
-0.877607
-0.949092
-0.860808
-0.805537
-0.707986
-0.604772
-0.485815
-0.360113
-0.228039
-0.0931369
0.0429007
0.177525
0.309043
0.433901
0.55175
0.653551
0.749534
0.802882
0.889499
0.815652
1.03941
0.457852
1.71679
-1.50183
5.71309
-5.45816
1.34799
-1.68045
-0.501926
-1.04597
-0.837559
-0.905357
-0.823603
-0.771736
-0.679775
-0.581616
-0.468062
-0.347531
-0.220582
-0.0906818
0.0403659
0.169987
0.296381
0.41607
0.528523
0.625285
0.715699
0.765685
0.845813
0.77573
0.983331
0.43634
1.61629
-1.41586
5.39279
-5.15038
1.26638
-1.5854
-0.481215
-0.992976
-0.799589
-0.86389
-0.78813
-0.739408
-0.652661
-0.559282
-0.450877
-0.335325
-0.213339
-0.0883074
0.0378796
0.162634
0.284068
0.398785
0.506101
0.598106
0.683337
0.730227
0.804408
0.737902
0.930511
0.415919
1.5215
-1.33385
5.08535
-4.85467
1.18833
-1.49574
-0.461684
-0.943172
-0.763762
-0.824748
-0.754491
-0.708662
-0.626761
-0.53788
-0.434357
-0.323568
-0.206358
-0.0860291
0.0354569
0.155511
0.272176
0.382142
0.484596
0.572132
0.652554
0.696607
0.765338
0.702232
0.880901
0.396699
1.43211
-1.25539
4.78998
-4.57028
1.11347
-1.41119
-0.443432
-0.896517
-0.730135
-0.787982
-0.722774
-0.679598
-0.602185
-0.517513
-0.418591
-0.312329
-0.19968
-0.0838619
0.0331121
0.14866
0.260774
0.36623
0.464107
0.547472
0.62345
0.664914
0.728653
0.668776
0.834457
0.378773
1.34786
-1.18009
4.50594
-4.29651
1.04145
-1.33151
-0.426546
-0.852971
-0.698763
-0.753639
-0.693065
-0.652306
-0.579032
-0.498275
-0.403662
-0.301671
-0.193346
-0.0818191
0.0308589
0.142122
0.249924
0.351132
0.444731
0.524223
0.596115
0.635229
0.6944
0.637586
0.791135
0.36223
1.26849
-1.10762
4.23253
-4.03268
0.971942
-1.25645
-0.411108
-0.812498
-0.669696
-0.721763
-0.665438
-0.626871
-0.557394
-0.480255
-0.389647
-0.291653
-0.187394
-0.0799135
0.0287103
0.135935
0.239688
0.336924
0.426554
0.502478
0.570632
0.607628
0.662619
0.60871
0.750898
0.347149
1.19375
-1.03765
3.96907
-3.77816
0.904663
-1.18581
-0.397195
-0.775069
-0.642983
-0.692397
-0.639965
-0.603372
-0.537357
-0.463532
-0.376618
-0.282332
-0.181858
-0.0781568
0.0266787
0.130134
0.230121
0.323681
0.409658
0.482323
0.547077
0.582181
0.633353
0.582197
0.713716
0.333605
1.12343
-0.969893
3.71493
-3.53239
0.839339
-1.11938
-0.384881
-0.740663
-0.618674
-0.665585
-0.616716
-0.581881
-0.519001
-0.448185
-0.364643
-0.273758
-0.176771
-0.0765596
0.0247758
0.124752
0.221275
0.311468
0.39412
0.463836
0.525525
0.558956
0.606644
0.558093
0.679567
0.321671
1.05735
-0.904078
3.46955
-3.29486
0.775732
-1.05701
-0.374239
-0.709271
-0.596819
-0.64137
-0.595757
-0.562469
-0.502402
-0.434284
-0.353784
-0.26598
-0.172164
-0.0751318
0.0230128
0.119822
0.2132
0.300349
0.38001
0.447094
0.506045
0.538018
0.582533
0.536449
0.648439
0.311419
0.995325
-0.839968
3.23243
-3.06516
0.713627
-0.998562
-0.365347
-0.680893
-0.577476
-0.619801
-0.577154
-0.545206
-0.48763
-0.421896
-0.3441
-0.259044
-0.168064
-0.0738826
0.0214004
0.115372
0.205941
0.290384
0.367396
0.432166
0.488705
0.519431
0.561067
0.517318
0.62033
0.302923
0.937239
-0.77735
3.00313
-2.84293
0.652839
-0.943949
-0.358284
-0.655544
-0.560703
-0.600929
-0.560973
-0.530156
-0.474756
-0.411085
-0.335646
-0.252991
-0.164498
-0.0728203
0.0199485
0.111432
0.199542
0.281629
0.356343
0.419123
0.47357
0.503262
0.542298
0.50076
0.595255
0.296262
0.882993
-0.71604
2.78132
-2.62796
0.593211
-0.89311
-0.353135
-0.633255
-0.54657
-0.584812
-0.547282
-0.517387
-0.463845
-0.401911
-0.328473
-0.24786
-0.16149
-0.0719524
0.0186667
0.108025
0.194044
0.274136
0.34691
0.40803
0.460705
0.489576
0.52628
0.486839
0.573241
0.291521
0.832528
-0.655881
2.56677
-2.42011
0.534618
-0.846029
-0.349997
-0.61407
-0.53515
-0.571513
-0.536151
-0.506965
-0.45496
-0.394431
-0.32263
-0.243688
-0.159063
-0.0712861
0.017564
0.105178
0.189485
0.267955
0.339156
0.398951
0.450177
0.478443
0.513075
0.47563
0.554333
0.288792
0.785827
-0.596749
2.35936
-2.21943
0.476967
-0.802739
-0.348971
-0.598052
-0.526529
-0.561102
-0.527654
-0.498954
-0.448165
-0.388701
-0.318164
-0.24051
-0.157237
-0.0708277
0.0166488
0.102913
0.185901
0.263133
0.333136
0.391948
0.44205
0.469934
0.502752
0.467216
0.538592
0.288179
0.742922
-0.538554
2.15912
-2.0261
0.420204
-0.763317
-0.350174
-0.585283
-0.5208
-0.553655
-0.521864
-0.493423
-0.443521