/*--------------------------------*- C++ -*----------------------------------*\
| =========                 |                                                 |
| \\      /  F ield         | OpenFOAM: The Open Source CFD Toolbox           |
|  \\    /   O peration     | Version:  5.x                                   |
|   \\  /    A nd           | Web:      www.OpenFOAM.org                      |
|    \\/     M anipulation  |                                                 |
\*---------------------------------------------------------------------------*/
FoamFile
{
    version     2.0;
    format      ascii;
    class       surfaceScalarField;
    location    "0.025";
    object      phi;
}
// * * * * * * * * * * * * * * * * * * * * * * * * * * * * * * * * * * * * * //

dimensions      [0 3 -1 0 0 0 0];

internalField   nonuniform List<scalar> 
14230
(
-4.61565e-13
-5.20319e-15
-4.51913e-13
-9.65296e-15
-4.27783e-13
-2.41317e-14
-4.12956e-13
-1.48285e-14
-3.53513e-13
-5.94451e-14
-3.77362e-13
2.3847e-14
-1.96315e-13
-1.81048e-13
-4.51437e-13
2.5512e-13
2.20202e-13
-6.7164e-13
-9.65588e-13
1.18579e-12
1.32972e-12
-2.2953e-12
-2.15853e-12
3.48825e-12
2.02323e-12
-4.18176e-12
-7.77052e-13
2.80028e-12
-1.49577e-12
7.1872e-13
-1.36206e-12
-1.7514e-14
-1.32642e-12
-4.52997e-14
-1.26539e-12
-8.51662e-14
-1.19033e-12
-8.98818e-14
-1.07508e-12
-1.74702e-13
-1.00057e-12
-5.06608e-14
-7.67857e-13
-4.13767e-13
-8.77952e-13
3.65214e-13
-1.81483e-13
-1.36811e-12
-1.20967e-12
2.21398e-12
1.21916e-12
-4.72414e-12
-2.65725e-12
7.36466e-12
2.77484e-12
-9.61385e-12
-1.06301e-12
6.63813e-12
-3.98894e-12
1.43016e-12
-2.2195e-12
-3.67758e-14
-2.15853e-12
-1.06274e-13
-2.06247e-12
-1.81224e-13
-1.92725e-12
-2.25107e-13
-1.76404e-12
-3.37912e-13
-1.57745e-12
-2.37253e-13
-1.34024e-12
-6.50981e-13
-1.19671e-12
2.21683e-13
-7.39327e-13
-1.82549e-12
-1.04522e-12
2.51987e-12
3.6297e-13
-6.13232e-12
-1.92592e-12
9.65356e-12
2.46428e-12
-1.40041e-11
-9.39766e-13
1.00422e-11
-6.91254e-12
1.98383e-12
-3.03001e-12
-6.34986e-14
-2.94567e-12
-1.9062e-13
-2.81309e-12
-3.13809e-13
-2.62481e-12
-4.13386e-13
-2.40384e-12
-5.58878e-13
-2.13158e-12
-5.09514e-13
-1.84392e-12
-9.38652e-13
-1.54342e-12
-7.88115e-14
-1.15332e-12
-2.2156e-12
-1.04636e-12
2.41291e-12
-2.15051e-13
-6.96363e-12
-1.27398e-12
1.07125e-11
2.1515e-12
-1.74295e-11
-7.61257e-13
1.29549e-11
-1.0338e-11
2.66425e-12
-3.79034e-12
-9.77486e-14
-3.68388e-12
-2.97089e-13
-3.51499e-12
-4.82694e-13
-3.27737e-12
-6.51006e-13
-2.99644e-12
-8.39813e-13
-2.64996e-12
-8.55993e-13
-2.29564e-12
-1.29298e-12
-1.87979e-12
-4.94655e-13
-1.48346e-12
-2.61193e-12
-1.11598e-12
2.04542e-12
-5.79867e-13
-7.49974e-12
-7.01747e-13
1.08344e-11
1.82189e-12
-1.99532e-11
-4.72563e-13
1.52494e-11
-1.42804e-11
3.46984e-12
-4.49682e-12
-1.39384e-13
-4.36926e-12
-4.24651e-13
-4.16508e-12
-6.86878e-13
-3.88072e-12
-9.35369e-13
-3.54054e-12
-1.17999e-12
-3.12607e-12
-1.27047e-12
-2.69997e-12
-1.71908e-12
-2.18977e-12
-1.00486e-12
-1.75211e-12
-3.04959e-12
-1.20056e-12
1.49388e-12
-7.79055e-13
-7.92125e-12
-2.24695e-13
1.028e-11
1.50801e-12
-2.16859e-11
-5.59406e-14
1.68133e-11
-1.87461e-11
4.40967e-12
-5.14544e-12
-1.88142e-13
-4.99776e-12
-5.72332e-13
-4.7597e-12
-9.24935e-13
-4.43082e-12
-1.26425e-12
-4.03347e-12
-1.57734e-12
-3.55515e-12
-1.7488e-12
-3.05703e-12
-2.2172e-12
-2.46417e-12
-1.59772e-12
-1.96656e-12
-3.5472e-12
-1.26969e-12
7.97012e-13
-8.54371e-13
-8.33656e-12
1.52165e-13
9.27347e-12
1.24888e-12
-2.27826e-11
5.02981e-13
1.75592e-11
-2.37341e-11
5.49106e-12
-5.73185e-12
-2.43689e-13
-5.56504e-12
-7.39142e-13
-5.29479e-12
-1.19519e-12
-4.92357e-12
-1.63547e-12
-4.47179e-12
-2.02913e-12
-3.93299e-12
-2.2876e-12
-3.36484e-12
-2.78535e-12
-2.6963e-12
-2.26626e-12
-2.12829e-12
-4.11522e-12
-1.3069e-12
-2.4379e-14
-8.43518e-13
-8.79994e-12
4.40844e-13
7.98911e-12
1.08113e-12
-2.34229e-11
1.21849e-12
1.74219e-11
-2.92343e-11
6.71862e-12
-6.25139e-12
-3.05642e-13
-6.0665e-12
-9.2403e-13
-5.7659e-12
-1.49579e-12
-5.35462e-12
-2.04675e-12
-4.85151e-12
-2.53224e-12
-4.25544e-12
-2.88367e-12
-3.62023e-12
-3.42056e-12
-2.88067e-12
-3.00582e-12
-2.23667e-12
-4.75921e-12
-1.30549e-12
-9.55565e-13
-7.7547e-13
-9.32996e-12
6.66254e-13
6.54739e-12
1.03932e-12
-2.3796e-11
2.10252e-12
1.63587e-11
-3.52267e-11
8.09498e-12
-6.69903e-12
-3.73589e-13
-6.49719e-12
-1.12588e-12
-6.16823e-12
-1.82474e-12
-5.71933e-12
-2.49565e-12
-5.1682e-12
-3.08337e-12
-4.51813e-12
-3.53374e-12
-3.81929e-12
-4.1194e-12
-3.01248e-12
-3.81263e-12
-2.29071e-12
-5.48098e-12
-1.26412e-12
-1.98216e-12
-6.67735e-13
-9.92635e-12
8.62121e-13
5.01753e-12
1.1552e-12
-2.4089e-11
3.16412e-12
1.43498e-11
-4.16835e-11
9.62091e-12
-7.06942e-12
-4.4709e-13
-6.85182e-12
-1.34348e-12
-6.4966e-12
-2.17996e-12
-6.01269e-12
-2.97957e-12
-5.417e-12
-3.67906e-12
-4.71639e-12
-4.23435e-12
-3.95767e-12
-4.87812e-12
-3.08739e-12
-4.68291e-12
-2.28948e-12
-6.2789e-12
-1.1828e-12
-3.08884e-12
-5.25895e-13
-1.05833e-11
1.06773e-12
3.42391e-12
1.45675e-12
-2.4478e-11
4.40937e-12
1.13971e-11
-4.85696e-11
1.12955e-11
-7.35684e-12
-5.25686e-13
-7.12474e-12
-1.57558e-12
-6.74545e-12
-2.55925e-12
-6.22928e-12
-3.49574e-12
-5.59263e-12
-4.31572e-12
-4.84514e-12
-4.98183e-12
-4.03061e-12
-5.69265e-12
-3.10116e-12
-5.61236e-12
-2.23156e-12
-7.1485e-12
-1.05966e-12
-4.26073e-12
-3.44436e-13
-1.12985e-11
1.32499e-12
1.75448e-12
1.9674e-12
-2.51205e-11
5.84151e-12
7.52302e-12
-5.58441e-11
1.3116e-11
-7.55517e-12
-6.08907e-13
-7.30989e-12
-1.82086e-12
-6.9088e-12
-2.96035e-12
-6.36326e-12
-4.04128e-12
-5.68934e-12
-4.98963e-12
-4.89884e-12
-5.77234e-12
-4.03291e-12
-6.55859e-12
-3.04926e-12
-6.596e-12
-2.11417e-12
-8.0836e-12
-8.88999e-13
-5.4859e-12
-1.08377e-13
-1.20791e-11
1.67594e-12
-2.98376e-14
2.70557e-12
-2.61501e-11
7.46103e-12
2.76755e-12
-6.34617e-11
1.50786e-11
-7.65793e-12
-6.96272e-13
-7.40085e-12
-2.07794e-12
-6.98024e-12
-3.38095e-12
-6.40832e-12
-4.61321e-12
-5.7009e-12
-5.69705e-12
-4.87143e-12
-6.60181e-12
-3.95879e-12
-7.47123e-12
-2.92634e-12
-7.62845e-12
-1.93215e-12
-9.07778e-12
-6.6017e-13
-6.75788e-12
2.04592e-13
-1.29439e-11
2.1605e-12
-1.98574e-12
3.6845e-12
-2.76741e-11
9.26588e-12
-2.81382e-12
-7.13738e-11
1.7178e-11
-7.65825e-12
-7.87301e-13
-7.39075e-12
-2.34545e-12
-6.95295e-12
-3.81875e-12
-6.35766e-12
-5.2085e-12
-5.62051e-12
-6.4342e-12
-4.75619e-12
-7.46613e-12
-3.80161e-12
-8.4258e-12
-2.7256e-12
-8.70447e-12
-1.67725e-12
-1.01261e-11
-3.57445e-13
-8.07769e-12
6.21752e-13
-1.39231e-11
2.81476e-12
-4.17874e-12
4.91231e-12
-2.97716e-11
1.12518e-11
-9.15327e-12
-7.95301e-11
1.94081e-11
-7.54888e-12
-8.81519e-13
-7.27232e-12
-2.62201e-12
-6.81962e-12
-4.27145e-12
-6.20395e-12
-5.82417e-12
-5.44076e-12
-7.19739e-12
-4.54562e-12
-8.36127e-12
-3.55366e-12
-9.41777e-12
-2.43838e-12
-9.81974e-12
-1.33772e-12
-1.12268e-11
3.93557e-14
-9.45476e-12
1.17306e-12
-1.50568e-11
3.66971e-12
-6.6754e-12
6.39215e-12
-3.24941e-11
1.34125e-11
-1.61736e-11
-8.78797e-11
2.17621e-11
-7.32214e-12
-9.78471e-13
-7.03787e-12
-2.90628e-12
-6.57248e-12
-4.73684e-12
-5.9393e-12
-6.45735e-12
-5.15356e-12
-7.98313e-12
-4.23133e-12
-9.2835e-12
-3.20583e-12
-1.04433e-11
-2.05379e-12
-1.09718e-11
-8.98285e-13
-1.23823e-11
5.53993e-13
-1.0907e-11
1.88866e-12
-1.63914e-11
4.75043e-12
-9.53717e-12
8.12269e-12
-3.58663e-11
1.57404e-11
-2.37913e-11
-9.6372e-11
2.42328e-11
-6.97003e-12
-1.07773e-12
-6.67931e-12
-3.197e-12
-6.20328e-12
-5.21287e-12
-5.55525e-12
-7.10538e-12
-4.75007e-12
-8.78831e-12
-3.80389e-12
-1.02297e-11
-2.74749e-12
-1.14997e-11
-1.55858e-12
-1.21607e-11
-3.40614e-13
-1.36003e-11
1.21243e-12
-1.24601e-11
2.79732e-12
-1.79763e-11
6.07564e-12
-1.28155e-11
1.00986e-11
-3.98893e-11
1.82267e-11
-3.19193e-11
-1.04958e-10
2.68126e-11
-6.48415e-12
-1.1789e-12
-6.18812e-12
-3.49302e-12
-5.70329e-12
-5.6977e-12
-5.04273e-12
-7.76594e-12
-4.2207e-12
-9.61034e-12
-3.25278e-12
-1.11976e-11
-2.16641e-12
-1.2586e-11
-9.37258e-13
-1.33898e-11
3.56152e-13
-1.48937e-11
2.04131e-12
-1.41452e-11
3.92468e-12
-1.98597e-11
7.65769e-12
-1.65485e-11
1.23114e-11
-4.4543e-11
2.08617e-11
-4.04697e-11
-1.13591e-10
2.94944e-11
-5.85577e-12
-1.28165e-12
-5.55543e-12
-3.79336e-12
-5.06335e-12
-6.18978e-12
-4.3921e-12
-8.43719e-12
-3.55502e-12
-1.04474e-11
-2.56637e-12
-1.21863e-11
-1.44883e-12
-1.37036e-11
-1.72445e-13
-1.46662e-11
1.21427e-12
-1.62804e-11
3.06645e-12
-1.59974e-11
5.29213e-12
-2.20854e-11
9.5028e-12
-2.07592e-11
1.47497e-11
-4.97899e-11
2.36356e-11
-4.93556e-11
-1.22226e-10
3.22706e-11
-5.07589e-12
-1.38572e-12
-4.77201e-12
-4.09724e-12
-4.27383e-12
-6.68796e-12
-3.59315e-12
-9.11788e-12
-2.74191e-12
-1.12987e-11
-1.73201e-12
-1.31961e-11
-5.79639e-13
-1.4856e-11
7.54513e-13
-1.60004e-11
2.2564e-12
-1.77823e-11
4.31164e-12
-1.80527e-11
6.91606e-12
-2.46898e-11
1.16116e-11
-2.54547e-11
1.74005e-11
-5.55788e-11
2.65385e-11
-5.84936e-11
-1.30822e-10
3.51346e-11
-4.13522e-12
-1.49092e-12
-3.82832e-12
-4.40413e-12
-3.32477e-12
-7.19151e-12
-2.63518e-12
-9.80746e-12
-1.76953e-12
-1.21643e-11
-7.36151e-13
-1.42295e-11
4.57261e-13
-1.60494e-11
1.86309e-12
-1.74062e-11
3.50468e-12
-1.94239e-11
5.79756e-12
-2.03455e-11
8.80751e-12
-2.76997e-11
1.39799e-11
-3.06271e-11
2.02493e-11
-6.18482e-11
2.95605e-11
-6.78048e-11
-1.39341e-10
3.80798e-11
-3.02429e-12
-1.59717e-12
-2.71463e-12
-4.7138e-12
-2.20587e-12
-7.70027e-12
-1.50709e-12
-1.05062e-11
-6.2552e-13
-1.30459e-11
4.35377e-13
-1.52904e-11
1.67854e-12
-1.72925e-11
3.17263e-12
-1.89003e-11
4.97958e-12
-2.12308e-11
7.54093e-12
-2.29069e-11
1.09722e-11
-3.1131e-11
1.65994e-11
-3.62543e-11
2.32812e-11
-6.853e-11
3.26924e-11
-7.72159e-11
-1.47749e-10
4.11002e-11
-1.73351e-12
-1.70446e-12
-1.42099e-12
-5.02632e-12
-9.06638e-13
-8.21462e-12
-1.97466e-13
-1.12154e-11
7.0282e-13
-1.39462e-11
1.79709e-12
-1.63847e-11
3.1009e-12
-1.85963e-11
4.70166e-12
-2.05011e-11
6.69912e-12
-2.32283e-11
9.55406e-12
-2.57618e-11
1.34108e-11
-3.49877e-11
1.94587e-11
-4.23022e-11
2.64814e-11
-7.55527e-11
3.59256e-11
-8.66602e-11
-1.56014e-10
4.41905e-11
-2.53245e-13
-1.81294e-12
6.25743e-14
-5.34214e-12
5.83537e-13
-8.73558e-12
1.30522e-12
-1.19371e-11
2.22834e-12
-1.48693e-11
3.3635e-12
-1.75199e-11
4.74059e-12
-1.99734e-11
6.46718e-12
-2.22276e-11
8.67819e-12
-2.54393e-11
1.18446e-11
-2.89283e-11
1.61194e-11
-3.92624e-11
2.25441e-11
-4.8727e-11
2.98351e-11
-8.28437e-11
3.92521e-11
-9.60772e-11
-1.64108e-10
4.73459e-11
1.42612e-12
-1.92285e-12
1.74602e-12
-5.66205e-12
2.27523e-12
-9.26479e-12
3.01246e-12
-1.26743e-11
3.96373e-12
-1.58206e-11
5.14869e-12
-1.87048e-11
6.61281e-12
-2.14376e-11
8.48406e-12
-2.40989e-11
1.09281e-11
-2.78833e-11
1.44158e-11
-3.2416e-11
1.90903e-11
-4.39369e-11
2.58406e-11
-5.54773e-11
3.33287e-11
-9.03319e-11
4.26648e-11
-1.05413e-10
-1.72005e-10
5.05619e-11
3.31403e-12
-2.03453e-12
3.63916e-12
-5.98718e-12
4.17885e-12
-9.80448e-12
4.93551e-12
-1.3431e-11
5.92131e-12
-1.68064e-11
7.16598e-12
-1.99495e-11
8.73124e-12
-2.30028e-11
1.07645e-11
-2.61322e-11
1.34562e-11
-3.0575e-11
1.72664e-11
-3.62262e-11
2.23128e-11
-4.89833e-11
2.93324e-11
-6.24968e-11
3.69495e-11
-9.7949e-11
4.61573e-11
-1.14621e-10
-1.79682e-10
5.38348e-11
5.41969e-12
-2.14845e-12
5.75152e-12
-6.319e-12
6.30447e-12
-1.03574e-11
7.08518e-12
-1.42117e-11
8.11268e-12
-1.78339e-11
9.42753e-12
-2.12643e-11
1.11076e-11
-2.46829e-11
1.33179e-11
-2.83424e-11
1.62663e-11
-3.35233e-11
2.03916e-11
-4.03516e-11
2.57739e-11
-5.43656e-11
3.30038e-11
-6.97267e-11
4.06858e-11
-1.05631e-10
4.97239e-11
-1.23659e-10
-1.87119e-10
5.71611e-11
7.75196e-12
-2.26517e-12
8.09224e-12
-6.65928e-12
8.66169e-12
-1.09269e-11
9.47161e-12
-1.50216e-11
1.05485e-11
-1.89107e-11
1.1944e-11
-2.26598e-11
1.37515e-11
-2.64905e-11
1.61502e-11
-3.07412e-11
1.93582e-11
-3.67312e-11
2.37831e-11
-4.47766e-11
2.94591e-11
-6.00416e-11
3.68396e-11
-7.71072e-11
4.45276e-11
-1.13319e-10
5.33598e-11
-1.32491e-10
-1.94297e-10
6.05378e-11
1.03192e-11
-2.38532e-12
1.06699e-11
-7.00999e-12
1.12594e-11
-1.15164e-11
1.21041e-11
-1.58663e-11
1.32381e-11
-2.00447e-11
1.47243e-11
-2.4146e-11
1.66699e-11
-2.84361e-11
1.92646e-11
-3.33358e-11
2.27285e-11
-4.01952e-11
2.74305e-11
-4.94785e-11
3.33531e-11
-6.59642e-11
4.08253e-11
-8.45794e-11
4.84657e-11
-1.20959e-10
5.70607e-11
-1.41086e-10
-2.01199e-10
6.39623e-11
1.31292e-11
-2.50958e-12
1.34925e-11
-7.37328e-12
1.41059e-11
-1.21298e-11
1.49909e-11
-1.67513e-11
1.61896e-11
-2.12435e-11
1.77753e-11
-2.57317e-11
1.98672e-11
-3.0528e-11
2.26608e-11
-3.61294e-11
2.6371e-11
-4.39054e-11
3.1321e-11
-5.44286e-11
3.74403e-11
-7.20835e-11
4.49477e-11
-9.20869e-11
5.24923e-11
-1.28504e-10
6.08227e-11
-1.49417e-10
-2.07808e-10
6.74321e-11
1.61891e-11
-2.63868e-12
1.65671e-11
-7.75136e-12
1.72082e-11
-1.27709e-11
1.81391e-11
-1.76822e-11
1.94095e-11
-2.25138e-11
2.1102e-11
-2.74243e-11
2.33453e-11
-3.27713e-11
2.6336e-11
-3.91201e-11
3.02768e-11
-4.78461e-11
3.5441e-11
-5.95927e-11
4.17056e-11
-7.83481e-11
4.91948e-11
-9.9576e-11
5.66007e-11
-1.3591e-10
6.46425e-11
-1.57458e-10
-2.14111e-10
7.09447e-11
1.95051e-11
-2.77331e-12
1.99001e-11
-8.14642e-12
2.05726e-11
-1.34433e-11
2.15544e-11
-1.8664e-11
2.29023e-11
-2.38617e-11
2.47071e-11
-2.92291e-11
2.71036e-11
-3.51678e-11
3.02849e-11
-4.23014e-11
3.44354e-11
-5.19966e-11
3.9776e-11
-6.49333e-11
4.61347e-11
-8.47068e-11
5.35559e-11
-1.06997e-10
6.0785e-11
-1.43139e-10
6.8517e-11
-1.6519e-10
-2.20092e-10
7.44982e-11
2.30827e-11
-2.91417e-12
2.34968e-11
-8.56052e-12
2.4204e-11
-1.41505e-11
2.52411e-11
-1.97011e-11
2.66711e-11
-2.52918e-11
2.85913e-11
-3.11493e-11
3.11392e-11
-3.77157e-11
3.44999e-11
-4.56621e-11
3.88346e-11
-5.63314e-11
4.43113e-11
-7.041e-11
5.07138e-11
-9.11092e-11
5.80214e-11
-1.14305e-10
6.50401e-11
-1.50158e-10
7.24434e-11
-1.72594e-10
-2.25739e-10
7.80905e-11
2.69263e-11
-3.06184e-12
2.73613e-11
-8.9955e-12
2.81061e-11
-1.48953e-11
2.9202e-11
-2.0797e-11
3.07172e-11
-2.68069e-11
3.27531e-11
-3.31851e-11
3.5447e-11
-4.04097e-11
3.89717e-11
-4.91867e-11
4.34616e-11
-6.08213e-11
4.90326e-11
-7.5981e-11
5.54305e-11
-9.75071e-11
6.25832e-11
-1.21458e-10
6.93617e-11
-1.56936e-10
7.64191e-11
-1.79651e-10
-2.3104e-10
8.17195e-11
3.10395e-11
-3.21683e-12
3.14969e-11
-9.45287e-12
3.22815e-11
-1.568e-11
3.34385e-11
-2.1954e-11
3.50399e-11
-2.84084e-11
3.71893e-11
-3.53345e-11
4.00203e-11
-4.32407e-11
4.36898e-11
-5.28562e-11
4.8303e-11
-6.54345e-11
5.39261e-11
-8.16041e-11
6.02735e-11
-1.03854e-10
6.72339e-11
-1.28418e-10
7.37457e-11
-1.63448e-10
8.04415e-11
-1.86347e-10
-2.35981e-10
8.53833e-11
3.54245e-11
-3.37952e-12
3.59054e-11
-9.93374e-12
3.67314e-11
-1.6506e-11
3.79504e-11
-2.31731e-11
3.96372e-11
-3.00951e-11
4.1895e-11
-3.75923e-11
4.48508e-11
-4.61965e-11
4.86426e-11
-5.6648e-11
5.33452e-11
-7.0137e-11
5.89786e-11
-8.72376e-11
6.52326e-11
-1.10109e-10
7.19671e-11
-1.35152e-10
7.81886e-11
-1.6967e-10
8.45082e-11
-1.92666e-10
-2.40553e-10
8.90799e-11
4.00827e-11
-3.55011e-12
4.05876e-11
-1.04387e-11
4.14555e-11
-1.73738e-11
4.27362e-11
-2.44538e-11
4.45054e-11
-3.18643e-11
4.68638e-11
-3.99507e-11
4.99292e-11
-4.92619e-11
5.38182e-11
-6.0537e-11
5.8575e-11
-7.48938e-11
6.4178e-11
-9.28405e-11
7.02987e-11
-1.16229e-10
7.67771e-11
-1.41631e-10
8.2687e-11
-1.75579e-10
8.86168e-11
-1.98596e-10
-2.44744e-10
9.28075e-11
4.50142e-11
-3.72864e-12
4.55433e-11
-1.09678e-11
4.64526e-11
-1.82831e-11
4.77929e-11
-2.57942e-11
4.96394e-11
-3.37108e-11
5.20881e-11
-4.23994e-11
5.52449e-11
-5.24186e-11
5.9204e-11
-6.44962e-11
6.39795e-11
-7.96693e-11
6.95127e-11
-9.83738e-11
7.54635e-11
-1.2218e-10
8.16589e-11
-1.47826e-10
8.72376e-11
-1.81158e-10
9.27649e-11
-2.04124e-10
-2.48543e-10
9.65641e-11
5.02182e-11
-3.91492e-12
5.07708e-11
-1.15205e-11
5.17199e-11
-1.92322e-11
5.31164e-11
-2.71906e-11
5.5033e-11
-3.56274e-11
5.75592e-11
-4.49257e-11
6.07872e-11
-5.56466e-11
6.47878e-11
-6.84968e-11
6.95465e-11
-8.4428e-11
7.49726e-11
-1.038e-10
8.07197e-11
-1.27927e-10
8.66078e-11
-1.53714e-10
9.18375e-11
-1.86388e-10
9.69501e-11
-2.09236e-10
-2.5194e-10
1.00348e-10
5.56926e-11
-4.10858e-12
5.62676e-11
-1.20956e-11
5.72539e-11
-2.02185e-11
5.87013e-11
-2.8638e-11
6.06789e-11
-3.76049e-11
6.32677e-11
-4.75145e-11
6.65446e-11
-5.89235e-11
7.05572e-11
-7.25093e-11
7.52642e-11
-8.9135e-11
8.0548e-11
-1.09084e-10
8.60606e-11
-1.3344e-10
9.16194e-11
-1.59273e-10
9.64836e-11
-1.91252e-10
1.0117e-10
-2.13923e-10
-2.54927e-10
1.04157e-10
6.14344e-11
-4.309e-12
6.20299e-11
-1.26911e-11
6.30497e-11
-2.12382e-11
6.45414e-11
-3.01297e-11
6.65689e-11
-3.96325e-11
6.92035e-11
-5.01492e-11
7.25059e-11
-6.22258e-11
7.65004e-11
-7.65039e-11
8.11218e-11
-9.37564e-11
8.62302e-11
-1.14192e-10
9.14802e-11
-1.3869e-10
9.66896e-11
-1.64482e-10
1.01173e-10
-1.95735e-10
1.05423e-10
-2.18172e-10
-2.57494e-10
1.07989e-10
6.74397e-11
-4.51536e-12
6.80532e-11
-1.33046e-11
6.91016e-11
-2.22866e-11
7.06294e-11
-3.16575e-11
7.26942e-11
-4.16973e-11
7.53563e-11
-5.28112e-11
7.86594e-11
-6.55289e-11
8.26059e-11
-8.04504e-11
8.71091e-11
-9.82596e-11
9.20113e-11
-1.19094e-10
9.69727e-11
-1.43651e-10
1.01815e-10
-1.69324e-10
1.05903e-10
-1.99823e-10
1.09705e-10
-2.21975e-10
-2.59632e-10
1.11844e-10
7.37035e-11
-4.72661e-12
7.43318e-11
-1.39329e-11
7.54029e-11
-2.33578e-11
7.69574e-11
-3.3212e-11
7.90455e-11
-4.37854e-11
8.17153e-11
-5.54811e-11
8.49939e-11
-6.88074e-11
8.88628e-11
-8.43193e-11
9.32165e-11
-1.02613e-10
9.78837e-11
-1.23762e-10
1.02533e-10
-1.48301e-10
1.06991e-10
-1.73782e-10
1.1067e-10
-2.03502e-10
1.14016e-10
-2.2532e-10
-2.61335e-10
1.15718e-10
8.022e-11
-4.94149e-12
8.08593e-11
-1.45722e-11
8.19464e-11
-2.44448e-11
8.35169e-11
-3.47825e-11
8.56128e-11
-4.58813e-11
8.82699e-11
-5.81382e-11
9.14984e-11
-7.20358e-11
9.52606e-11
-8.80815e-11
9.94352e-11
-1.06788e-10
1.03841e-10
-1.28167e-10
1.08157e-10
-1.52616e-10
1.12214e-10
-1.7784e-10
1.15472e-10
-2.0676e-10
1.18352e-10
-2.282e-10
-2.62593e-10
1.1961e-10
8.69828e-11
-5.15856e-12
8.76288e-11
-1.52181e-11
8.87241e-11
-2.55401e-11
9.02989e-11
-3.63573e-11
9.23864e-11
-4.79688e-11
9.50094e-11
-6.07612e-11
9.81621e-11
-7.51886e-11
1.01789e-10
-9.17088e-11
1.05757e-10
-1.10755e-10
1.09876e-10
-1.32287e-10
1.13838e-10
-1.56578e-10
1.17482e-10
-1.81484e-10
1.20306e-10
-2.09584e-10
1.22712e-10
-2.30606e-10
-2.63401e-10
1.2352e-10
9.39847e-11
-5.37619e-12
9.46324e-11
-1.58659e-11
9.57275e-11
-2.66352e-11
9.72941e-11
-3.79239e-11
9.93559e-11
-5.00306e-11
1.01923e-10
-6.33286e-11
1.04975e-10
-7.82402e-11
1.0844e-10
-9.5174e-11
1.12174e-10
-1.14489e-10
1.15984e-10
-1.36097e-10
1.19574e-10
-1.60168e-10
1.2279e-10
-1.847e-10
1.2517e-10
-2.11963e-10
1.27093e-10
-2.32529e-10
-2.63752e-10
1.27445e-10
1.01218e-10
-5.59259e-12
1.01862e-10
-1.65102e-11
1.02948e-10
-2.77209e-11
1.04493e-10
-3.94689e-11
1.06511e-10
-5.20492e-11
1.09001e-10
-6.58184e-11
1.11927e-10
-8.11658e-11
1.15204e-10
-9.84511e-11
1.18679e-10
-1.17964e-10
1.22159e-10
-1.39577e-10
1.2536e-10
-1.63369e-10
1.28136e-10
-1.87476e-10
1.3006e-10
-2.13888e-10
1.31495e-10
-2.33964e-10
-2.63641e-10
1.31383e-10
1.08674e-10
-5.80587e-12
1.09309e-10
-1.71453e-11
1.10376e-10
-2.87877e-11
1.11885e-10
-4.09785e-11
1.13843e-10
-5.40064e-11
1.16233e-10
-6.82089e-11
1.19008e-10
-8.3941e-11
1.22072e-10
-1.01515e-10
1.25266e-10
-1.21158e-10
1.28395e-10
-1.42706e-10
1.31192e-10
-1.66166e-10
1.33516e-10
-1.89801e-10
1.34975e-10
-2.15347e-10
1.35914e-10
-2.34903e-10
-2.63061e-10
1.35335e-10
1.16344e-10
-6.01398e-12
1.16964e-10
-1.77652e-11
1.18002e-10
-2.98253e-11
1.19462e-10
-4.24385e-11
1.2134e-10
-5.5884e-11
1.23609e-10
-7.04786e-11
1.26211e-10
-8.65423e-11
1.29038e-10
-1.04342e-10
1.31928e-10
-1.24048e-10
1.34689e-10
-1.45468e-10
1.37066e-10
-1.68542e-10
1.38928e-10
-1.91663e-10
1.39913e-10
-2.16332e-10
1.4035e-10
-2.3534e-10
-2.62009e-10
1.39297e-10
1.2422e-10
-6.21483e-12
1.24819e-10
-1.83638e-11
1.25817e-10
-3.08235e-11
1.27213e-10
-4.38343e-11
1.28993e-10
-5.76638e-11
1.3112e-10
-7.26062e-11
1.33525e-10
-8.8947e-11
1.36093e-10
-1.0691e-10
1.38659e-10
-1.26614e-10
1.41034e-10
-1.47843e-10
1.42978e-10
-1.70486e-10
1.44368e-10
-1.93053e-10
1.4487e-10
-2.16834e-10
1.448e-10
-2.3527e-10
-2.60478e-10
1.4327e-10
1.32292e-10
-6.40624e-12
1.32863e-10
-1.89346e-11
1.33811e-10
-3.17717e-11
1.35128e-10
-4.51514e-11
1.36792e-10
-5.93278e-11
1.38757e-10
-7.45712e-11
1.40943e-10
-9.11333e-11
1.43231e-10
-1.09197e-10
1.45453e-10
-1.28836e-10
1.47428e-10
-1.49818e-10
1.48926e-10
-1.71984e-10
1.49834e-10
-1.93961e-10
1.49846e-10
-2.16846e-10
1.49264e-10
-2.34688e-10
-2.58466e-10
1.47252e-10
1.40551e-10
-6.586e-12
1.41088e-10
-1.94711e-11
1.41975e-10
-3.26591e-11
1.43199e-10
-4.63752e-11
1.44729e-10
-6.0858e-11
1.46512e-10
-7.63535e-11
1.48458e-10
-9.30802e-11
1.50445e-10
-1.11184e-10
1.52307e-10
-1.30698e-10
1.53865e-10
-1.51376e-10
1.54906e-10
-1.73025e-10
1.55323e-10
-1.94378e-10
1.54837e-10
-2.1636e-10
1.53739e-10
-2.33589e-10
-2.55969e-10
1.51241e-10
1.48988e-10
-6.75189e-12
1.49483e-10
-1.99668e-11
1.50299e-10
-3.34752e-11
1.51416e-10
-4.74914e-11
1.52795e-10
-6.22372e-11
1.54375e-10
-7.79338e-11
1.56063e-10
-9.47678e-11
1.5773e-10
-1.12851e-10
1.59214e-10
-1.32182e-10
1.60342e-10
-1.52504e-10
1.60914e-10
-1.73597e-10
1.60833e-10
-1.94297e-10
1.59844e-10
-2.1537e-10
1.58224e-10
-2.3197e-10
-2.52983e-10
1.55238e-10
1.57593e-10
-6.90169e-12
1.58041e-10
-2.04151e-11
1.58775e-10
-3.42092e-11
1.59769e-10
-4.84858e-11
1.6098e-10
-6.34483e-11
1.6234e-10
-7.92933e-11
1.63749e-10
-9.61773e-11
1.65079e-10
-1.14181e-10
1.6617e-10
-1.33272e-10
1.66855e-10
-1.5319e-10
1.66949e-10
-1.73691e-10
1.66363e-10
-1.9371e-10
1.64863e-10
-2.1387e-10
1.62719e-10
-2.29826e-10
-2.49504e-10
1.59241e-10
1.66356e-10
-7.03319e-12
1.66751e-10
-2.08096e-11
1.67393e-10
-3.48509e-11
1.68251e-10
-4.93445e-11
1.69278e-10
-6.4475e-11
1.70399e-10
-8.04144e-11
1.71512e-10
-9.72907e-11
1.72488e-10
-1.15157e-10
1.7317e-10
-1.33954e-10
1.73402e-10
-1.53421e-10
1.73008e-10
-1.73298e-10
1.71908e-10
-1.92611e-10
1.69893e-10
-2.11854e-10
1.67222e-10
-2.27155e-10
-2.45531e-10
1.63248e-10
1.7527e-10
-7.14424e-12
1.75605e-10
-2.11438e-11
1.76144e-10
-3.53898e-11
1.76853e-10
-5.0054e-11
1.77679e-10
-6.53013e-11
1.78545e-10
-8.12798e-11
1.79345e-10
-9.80909e-11
1.79951e-10
-1.15763e-10
1.80212e-10
-1.34215e-10
1.79978e-10
-1.53187e-10
1.79088e-10
-1.72408e-10
1.77469e-10
-1.90992e-10
1.74932e-10
-2.09318e-10
1.71731e-10
-2.23953e-10
-2.41061e-10
1.67261e-10
1.84326e-10
-7.2327e-12
1.84593e-10
-2.14116e-11
1.8502e-10
-3.58161e-11
1.85567e-10
-5.06013e-11
1.86178e-10
-6.59121e-11
1.86771e-10
-8.18734e-11
1.87242e-10
-9.8562e-11
1.87464e-10
-1.15984e-10
1.8729e-10
-1.34041e-10
1.8658e-10
-1.52478e-10
1.85186e-10
-1.71013e-10
1.83042e-10
-1.88849e-10
1.7998e-10
-2.06256e-10
1.76246e-10
-2.20219e-10
-2.36091e-10
1.71276e-10
1.93514e-10
-7.29655e-12
1.93709e-10
-2.16069e-11
1.94013e-10
-3.61201e-11
1.94386e-10
-5.09737e-11
1.94766e-10
-6.62928e-11
1.95072e-10
-8.21797e-11
1.95199e-10
-9.86886e-11
1.95022e-10
-1.15806e-10
1.94401e-10
-1.33421e-10
1.93206e-10
-1.51283e-10
1.913e-10
-1.69107e-10
1.88626e-10
-1.86175e-10
1.85035e-10
-2.02665e-10
1.80765e-10
-2.15949e-10
-2.3062e-10
1.75294e-10
2.02827e-10
-7.33378e-12
2.02944e-10
-2.17237e-11
2.03116e-10
-3.62924e-11
2.03301e-10
-5.11591e-11
2.03438e-10
-6.64293e-11
2.03442e-10
-8.21838e-11
2.0321e-10
-9.84564e-11
2.02621e-10
-1.15217e-10
2.01543e-10
-1.32343e-10
1.99854e-10
-1.49593e-10
1.97428e-10
-1.66681e-10
1.9422e-10
-1.82966e-10
1.90095e-10
-1.9854e-10
1.85287e-10
-2.11141e-10
-2.24646e-10
1.79313e-10
2.12257e-10
-7.34249e-12
2.1229e-10
-2.17565e-11
2.12321e-10
-3.63239e-11
2.12308e-10
-5.1146e-11
2.12187e-10
-6.63083e-11
2.11875e-10
-8.18719e-11
2.11271e-10
-9.78517e-11
2.10257e-10
-1.14204e-10
2.08712e-10
-1.30798e-10
2.06519e-10
-1.47401e-10
2.03569e-10
-1.63731e-10
1.9982e-10
-1.79218e-10
1.95159e-10
-1.93879e-10
1.89812e-10
-2.05793e-10
-2.18167e-10
1.83333e-10
2.21798e-10
-7.32083e-12
2.21741e-10
-2.16996e-11
2.21623e-10
-3.62061e-11
2.214e-10
-5.09229e-11
2.21009e-10
-6.5917e-11
2.20367e-10
-8.12305e-11
2.19377e-10
-9.68615e-11
2.17928e-10
-1.12755e-10
2.15904e-10
-1.28774e-10
2.13201e-10
-1.44698e-10
2.09719e-10
-1.60249e-10
2.05427e-10
-1.74926e-10
2.00226e-10
-1.88679e-10
1.94338e-10
-1.99905e-10
-2.11182e-10
1.87353e-10
2.31441e-10
-7.26707e-12
2.3129e-10
-2.15479e-11
2.31014e-10
-3.59305e-11
2.30571e-10
-5.04793e-11
2.29897e-10
-6.52431e-11
2.28913e-10
-8.02468e-11
2.27525e-10
-9.54735e-11
2.25629e-10
-1.10858e-10
2.23118e-10
-1.26263e-10
2.19896e-10
-1.41476e-10
2.15877e-10
-1.56229e-10
2.11037e-10
-1.70086e-10
2.05294e-10
-1.82936e-10
1.98863e-10
-1.93474e-10
-2.03691e-10
1.91372e-10
2.41183e-10
-7.1795e-12
2.40931e-10
-2.12963e-11
2.4049e-10
-3.54891e-11
2.39815e-10
-4.98048e-11
2.38847e-10
-6.4275e-11
2.37509e-10
-7.89086e-11
2.35711e-10
-9.3676e-11
2.33358e-10
-1.08505e-10
2.3035e-10
-1.23255e-10
2.26603e-10
-1.3773e-10
2.22041e-10
-1.51668e-10
2.16649e-10
-1.64694e-10
2.10361e-10
-1.76648e-10
2.03386e-10
-1.86499e-10
-1.95693e-10
1.95388e-10
2.51016e-10
-7.05654e-12
2.5066e-10
-2.09398e-11
2.50045e-10
-3.48741e-11
2.4913e-10
-4.88894e-11
2.47856e-10
-6.30013e-11
2.46151e-10
-7.72041e-11
2.43933e-10
-9.14573e-11
2.41111e-10
-1.05683e-10
2.37598e-10
-1.19742e-10
2.33318e-10
-1.3345e-10
2.28209e-10
-1.46558e-10
2.22262e-10
-1.58747e-10
2.15427e-10
-1.69813e-10
2.07907e-10
-1.78978e-10
-1.87187e-10
1.99401e-10
2.60937e-10
-6.89663e-12
2.60471e-10
-2.04738e-11
2.59675e-10
-3.40781e-11
2.5851e-10
-4.77236e-11
2.56919e-10
-6.14111e-11
2.54837e-10
-7.5122e-11
2.52187e-10
-8.88067e-11
2.48887e-10
-1.02383e-10
2.44859e-10
-1.15714e-10
2.40041e-10
-1.28632e-10
2.34378e-10
-1.40895e-10
2.27873e-10
-1.52242e-10
2.20489e-10
-1.62429e-10
2.12422e-10
-1.70912e-10
-1.78173e-10
2.03409e-10
2.70942e-10
-6.6983e-12
2.70362e-10
-1.98937e-11
2.69378e-10
-3.30937e-11
2.67952e-10
-4.6298e-11
2.66035e-10
-5.94937e-11
2.63564e-10
-7.26511e-11
2.6047e-10
-8.57131e-11
2.56682e-10
-9.85952e-11
2.52133e-10
-1.11165e-10
2.46768e-10
-1.23267e-10
2.40547e-10
-1.34675e-10
2.3348e-10
-1.45175e-10
2.25544e-10
-1.54493e-10
2.16931e-10
-1.62298e-10
-1.68653e-10
2.07411e-10
2.81027e-10
-6.46012e-12
2.80328e-10
-1.9195e-11
2.79149e-10
-3.1914e-11
2.77454e-10
-4.46035e-11
2.75199e-10
-5.72387e-11
2.72329e-10
-6.97806e-11
2.68781e-10
-8.21659e-11
2.64496e-10
-9.43097e-11
2.59415e-10
-1.06084e-10
2.53498e-10
-1.17349e-10
2.46714e-10
-1.27891e-10
2.39081e-10
-1.37542e-10
2.30592e-10
-1.46004e-10
2.21431e-10
-1.53137e-10
-1.58627e-10
2.11405e-10
2.9119e-10
-6.1807e-12
2.90369e-10
-1.83734e-11
2.88987e-10
-3.0532e-11
2.87014e-10
-4.26311e-11
2.84411e-10
-5.46359e-11
2.8113e-10
-6.64995e-11
2.77119e-10
-7.81545e-11
2.72326e-10
-8.95166e-11
2.66706e-10
-1.00464e-10
2.60228e-10
-1.10871e-10
2.52875e-10
-1.20538e-10
2.44674e-10
-1.29341e-10
2.3563e-10
-1.3696e-10
2.2592e-10
-1.43427e-10
-1.48098e-10
2.15391e-10
3.0143e-10
-5.85871e-12
3.00481e-10
-1.74246e-11
2.9889e-10
-2.89409e-11
2.96631e-10
-4.0372e-11
2.9367e-10
-5.1675e-11
2.89968e-10
-6.2797e-11
2.85481e-10
-7.36681e-11
2.80171e-10
-8.42058e-11
2.74002e-10
-9.42954e-11
2.66957e-10
-1.03826e-10
2.5903e-10
-1.12612e-10
2.50256e-10
-1.20567e-10
2.40655e-10
-1.27359e-10
2.30396e-10
-1.33168e-10
-1.37066e-10
2.19365e-10
3.11746e-10
-5.4928e-12
3.10666e-10
-1.63445e-11
3.08859e-10
-2.71338e-11
3.06305e-10
-3.78174e-11
3.02975e-10
-4.83459e-11
2.98841e-10
-5.86621e-11
2.93868e-10
-6.86956e-11
2.88029e-10
-7.83669e-11
2.81303e-10
-8.75689e-11
2.73682e-10
-9.6205e-11
2.65175e-10
-1.04105e-10
2.55824e-10
-1.11216e-10
2.45664e-10
-1.17199e-10
2.34856e-10
-1.22359e-10
-1.25536e-10
2.23325e-10
3.22139e-10
-5.08167e-12
3.20924e-10
-1.51288e-11
3.18894e-10
-2.51041e-11
3.16035e-10
-3.49585e-11
3.12327e-10
-4.46381e-11
3.07749e-10
-5.40838e-11
3.02279e-10
-6.32257e-11
2.95901e-10
-7.19889e-11
2.88607e-10
-8.02746e-11
2.80402e-10
-8.80006e-11
2.71308e-10
-9.50103e-11
2.61376e-10
-1.01284e-10
2.50654e-10
-1.06478e-10
2.39295e-10
-1.11e-10
-1.13511e-10
2.2727e-10
3.32611e-10
-4.62398e-12
3.31255e-10
-1.37733e-11
3.28996e-10
-2.28449e-11
3.25824e-10
-3.17861e-11
3.21727e-10
-4.05411e-11
3.16693e-10
-4.90504e-11
3.10714e-10
-5.72466e-11
3.03786e-10
-6.50603e-11
2.95913e-10
-7.2402e-11
2.87116e-10
-7.92031e-11
2.77427e-10
-8.53216e-11
2.66908e-10
-9.07653e-11
2.55622e-10
-9.51915e-11
2.43712e-10
-9.90901e-11
-1.00995e-10
2.31196e-10
3.43163e-10
-4.11841e-12
3.41664e-10
-1.22738e-11
3.39168e-10
-2.03492e-11
3.35673e-10
-2.82913e-11
3.31176e-10
-3.60441e-11
3.25676e-10
-4.35501e-11
3.19175e-10
-5.0746e-11
3.11684e-10
-5.75691e-11
3.03222e-10
-6.39395e-11
2.93821e-10
-6.98024e-11
2.83529e-10
-7.50298e-11
2.72418e-10
-7.96535e-11
2.60563e-10
-8.33374e-11
2.481e-10
-8.6627e-11
-8.79939e-11
2.35099e-10
3.53801e-10
-3.56359e-12
3.52153e-10
-1.06258e-11
3.49414e-10
-1.76101e-11
3.45587e-10
-2.44645e-11
3.40679e-10
-3.11358e-11
3.34699e-10
-3.75704e-11
3.27664e-10
-4.37108e-11
3.19597e-10
-4.95021e-11
3.10532e-10
-5.48748e-11
3.00517e-10
-5.97873e-11
2.89613e-10
-6.41257e-11
2.77901e-10
-6.79417e-11
2.65475e-10
-7.09111e-11
2.52456e-10
-7.36086e-11
-7.45134e-11
2.38976e-10
3.64529e-10
-2.95814e-12
3.62728e-10
-8.82506e-12
3.59738e-10
-1.46202e-11
3.5557e-10
-2.02961e-11
3.50239e-10
-2.58046e-11
3.43766e-10
-3.10983e-11
3.36183e-10
-3.61271e-11
3.27526e-10
-4.08453e-11
3.17846e-10
-4.51943e-11
3.07204e-10
-4.91453e-11
2.95676e-10
-5.25985e-11
2.83356e-10
-5.5621e-11
2.70352e-10
-5.79077e-11
2.56775e-10
-6.00309e-11
-6.05595e-11
2.42821e-10
3.75353e-10
-2.30059e-12
3.73395e-10
-6.86687e-12
3.70147e-10
-1.13721e-11
3.65627e-10
-1.5776e-11
3.59861e-10
-2.00384e-11
3.52882e-10
-2.41201e-11
3.44736e-10
-2.79803e-11
3.35474e-10
-3.15837e-11
3.25163e-10
-3.48834e-11
3.1388e-10
-3.78623e-11
3.01718e-10
-4.04363e-11
2.88778e-10
-4.26809e-11
2.75192e-10
-4.43217e-11
2.61049e-10
-4.58883e-11
-4.61371e-11
2.46627e-10
3.86282e-10
-1.58945e-12
3.84161e-10
-4.74657e-12
3.80647e-10
-7.85806e-12
3.75765e-10
-1.0894e-11
3.69551e-10
-1.38245e-11
3.62053e-10
-1.66213e-11
3.53327e-10
-1.92548e-11
3.43444e-10
-2.17009e-11
3.32487e-10
-2.39258e-11
3.20547e-10
-2.59225e-11
3.07737e-10
-2.76259e-11
2.94164e-10
-2.91083e-11
2.7999e-10