/*--------------------------------*- C++ -*----------------------------------*\
| =========                 |                                                 |
| \\      /  F ield         | OpenFOAM: The Open Source CFD Toolbox           |
|  \\    /   O peration     | Version:  5.x                                   |
|   \\  /    A nd           | Web:      www.OpenFOAM.org                      |
|    \\/     M anipulation  |                                                 |
\*---------------------------------------------------------------------------*/
FoamFile
{
    version     2.0;
    format      ascii;
    class       volVectorField;
    location    "0.025";
    object      U;
}
// * * * * * * * * * * * * * * * * * * * * * * * * * * * * * * * * * * * * * //

dimensions      [0 1 -1 0 0 0 0];

internalField   nonuniform List<vector> 
7200
(
(-0.000929609 -4.84717e-05 0)
(-0.000928038 -0.000142393 5.61116e-23)
(-0.000864221 -0.000230439 -3.09274e-22)
(-0.000900119 -0.000328432 0)
(-0.000676872 -0.000360635 -7.20646e-22)
(-0.000953673 -0.000545797 2.19881e-22)
(-0.000199327 -0.000298149 -3.13085e-21)
(-0.00139172 -0.00101548 3.04758e-23)
(0.000994038 0.000407003 -8.00295e-21)
(-0.00279645 -0.00237837 0)
(0.00332798 0.00248933 -1.20678e-22)
(-0.00467908 -0.00445628 1.70635e-20)
(0.00394776 0.00293737 0)
(-0.00227592 -0.00096302 -1.06622e-20)
(0.000695938 -0.000414945 -1.74303e-21)
(-0.00274351 -0.000148266 -3.77058e-25)
(-0.00272203 -0.000440465 3.72921e-25)
(-0.00256896 -0.000710579 0)
(-0.00257416 -0.00100392 -1.26894e-23)
(-0.00211683 -0.00113773 1.05853e-21)
(-0.00247874 -0.00158641 -5.44435e-22)
(-0.00114813 -0.00114147 2.07103e-23)
(-0.00290567 -0.00256939 -1.39395e-21)
(0.000928701 0.000133366 1.1828e-20)
(-0.00472967 -0.00515457 1.95368e-23)
(0.00480272 0.00433626 1.4119e-20)
(-0.00773491 -0.0098634 -2.55569e-20)
(0.00671631 0.00704759 3.10306e-20)
(-0.00393499 -0.0030597 1.66538e-20)
(0.00199563 -0.000966008 -1.2422e-21)
(-0.00447211 -0.000246117 -2.12798e-24)
(-0.00442498 -0.000732788 4.11728e-25)
(-0.00420157 -0.00118593 -8.34137e-24)
(-0.00414088 -0.00165628 8.06664e-24)
(-0.00352907 -0.00193329 0)
(-0.00383377 -0.00252748 1.11572e-21)
(-0.00219317 -0.00215794 1.0147e-23)
(-0.00408786 -0.00368275 1.37712e-21)
(0.000546899 -0.000964434 3.70068e-23)
(-0.00616148 -0.00631029 -4.68941e-21)
(0.00596784 0.00354697 -1.95961e-21)
(-0.0109144 -0.0116861 1.48226e-22)
(0.0107325 0.00858479 -3.23353e-20)
(-0.00673138 -0.00468934 0)
(0.00376472 -0.0013229 5.77359e-21)
(-0.00610799 -0.000342429 3.6205e-24)
(-0.00603235 -0.00102206 1.11037e-22)
(-0.00574884 -0.00165553 0)
(-0.0056042 -0.00229943 -6.22962e-22)
(-0.00488152 -0.00272333 -8.74289e-25)
(-0.00504847 -0.00344236 -1.30491e-21)
(-0.00326566 -0.00319338 0)
(-0.00498565 -0.00469934 0)
(-0.000141339 -0.00221411 0)
(-0.00685588 -0.00707213 4.86189e-21)
(0.00608028 0.00202594 -1.2874e-20)
(-0.0124905 -0.0120217 7.03799e-23)
(0.0137429 0.00872217 1.07416e-22)
(-0.00927896 -0.00601853 -2.343e-23)
(0.0058861 -0.00152755 -3.11596e-21)
(-0.00764375 -0.000437297 -2.86388e-24)
(-0.00753853 -0.00130713 -1.10537e-22)
(-0.00720048 -0.00211866 -2.76158e-22)
(-0.00696513 -0.00293166 1.27791e-21)
(-0.00615116 -0.00350407 -1.15987e-21)
(-0.00615078 -0.00433568 6.82624e-22)
(-0.0042922 -0.00422335 2.19761e-23)
(-0.00572075 -0.00567064 0)
(-0.000903329 -0.00348411 -2.56846e-24)
(-0.00718797 -0.00770949 2.23727e-24)
(0.00570738 0.000335374 7.19812e-23)
(-0.012929 -0.0116721 -5.75513e-23)
(0.0157798 0.00793922 2.22572e-20)
(-0.0114181 -0.00705738 0)
(0.00841123 -0.00161538 3.05083e-21)
(-0.00907159 -0.000530491 -5.4008e-25)
(-0.00893675 -0.00158664 3.76492e-24)
(-0.00854754 -0.00257346 -1.40952e-23)
(-0.00822036 -0.00355047 -6.69479e-22)
(-0.00732394 -0.00427102 2.34797e-21)
(-0.00714973 -0.00520705 2.42737e-23)
(-0.00523757 -0.00523403 -2.26115e-23)
(-0.00634452 -0.00661378 0)
(-0.00162924 -0.00471871 0)
(-0.0073408 -0.0083206 0)
(0.00521298 -0.00128088 0)
(-0.0126868 -0.011097 1.13739e-20)
(0.0170619 0.0065736 -2.31854e-20)
(-0.0130938 -0.00780681 5.67374e-23)
(0.0113708 -0.0016132 -6.50329e-21)
(-0.0103832 -0.000621643 0)
(-0.0102193 -0.00185933 -3.39752e-24)
(-0.00978136 -0.00301781 2.92943e-22)
(-0.00936394 -0.00415342 -7.40119e-22)
(-0.00838953 -0.00501969 3.01949e-23)
(-0.00804456 -0.00605453 0)
(-0.00608403 -0.00621589 0)
(-0.00687232 -0.00753299 0)
(-0.00227244 -0.00589195 3.96869e-21)
(-0.00737609 -0.00893868 2.22008e-21)
(0.00476281 -0.00272729 -4.71066e-23)
(-0.0120516 -0.0105708 -1.12783e-20)
(0.0177567 0.00490531 1.86406e-20)
(-0.0142259 -0.00828123 4.45328e-23)
(0.014785 -0.00154192 1.51086e-22)
(-0.0115698 -0.000710323 -4.91999e-24)
(-0.0113776 -0.00212393 -3.57204e-24)
(-0.0108931 -0.00344942 -3.10783e-22)
(-0.0103884 -0.00473782 1.53069e-21)
(-0.00933884 -0.00574578 -2.50183e-21)
(-0.00883007 -0.00687476 -8.75359e-24)
(-0.0068204 -0.00716209 -2.08579e-21)
(-0.00730461 -0.00842512 -6.85123e-22)
(-0.00281 -0.00699404 -8.69012e-23)
(-0.00730952 -0.00956545 -2.26393e-21)
(0.00442281 -0.00399285 0)
(-0.0112122 -0.0102238 0)
(0.0180272 0.00315308 -3.69793e-20)
(-0.014734 -0.00850319 4.67872e-23)
(0.0186676 -0.00141818 1.73281e-22)
(-0.0126219 -0.000796051 4.93878e-24)
(-0.0124026 -0.00237906 -3.75397e-24)
(-0.0118734 -0.00386588 6.47525e-22)
(-0.0112851 -0.00530061 4.39808e-23)
(-0.0101629 -0.00644493 1.24698e-21)
(-0.00949879 -0.00766328 -1.10461e-21)
(-0.00743763 -0.00806689 4.24881e-21)
(-0.00763563 -0.0092836 6.51944e-22)
(-0.00322808 -0.00802223 -3.9237e-21)
(-0.00714275 -0.0101911 1.37889e-21)
(0.00420961 -0.00510223 -2.93507e-23)
(-0.0102878 -0.0100861 -1.16679e-22)
(0.0180462 0.00147767 1.82164e-20)
(-0.0145523 -0.00849897 0)
(0.023027 -0.00125542 1.74283e-22)
(-0.0135293 -0.000878307 -6.2915e-24)
(-0.0132841 -0.00262322 -1.61453e-22)
(-0.0127124 -0.0042646 -3.33491e-22)
(-0.0120448 -0.00583847 -8.39122e-22)
(-0.0108524 -0.00711261 -2.02333e-23)
(-0.0100419 -0.00841501 1.17716e-21)
(-0.00792706 -0.00892465 2.46723e-23)
(-0.00785673 -0.0101008 -1.04038e-21)
(-0.00351732 -0.00897564 3.76162e-23)
(-0.00687435 -0.0108034 -1.41276e-21)
(0.00411699 -0.00608451 0)
(-0.00933545 -0.0101268 0)
(0.0179871 -8.31566e-06 -5.55348e-23)
(-0.0136306 -0.00829711 8.31613e-23)
(0.0278652 -0.00106464 3.74432e-21)
(-0.0142814 -0.000956537 6.31566e-24)
(-0.0140117 -0.00285484 3.37679e-22)
(-0.0133996 -0.00464286 -8.76857e-24)
(-0.012657 -0.00634776 1.24788e-23)
(-0.0113973 -0.00774402 1.41989e-21)
(-0.0104495 -0.00912437 8.54362e-24)
(-0.0082796 -0.00972945 -2.23523e-21)
(-0.00795797 -0.0108687 2.22301e-21)
(-0.00367068 -0.00985274 -3.86505e-23)
(-0.0065029 -0.0113891 -6.97265e-23)
(0.00413485 -0.00695855 5.98948e-23)
(-0.00836107 -0.0102831 -6.41521e-21)
(0.018016 -0.00123182 1.54184e-20)
(-0.0119339 -0.00792754 4.5532e-23)
(0.0331789 -0.000854927 -3.71758e-21)
(-0.0148666 -0.00103016 0)
(-0.0145738 -0.00307223 -1.76466e-22)
(-0.0139236 -0.00499776 1.34862e-23)
(-0.0131108 -0.0068246 -1.31222e-23)
(-0.0117869 -0.00833411 -2.88086e-21)
(-0.0107107 -0.00978533 -8.55839e-24)
(-0.00848545 -0.0104749 2.82144e-23)
(-0.00792876 -0.0115789 -1.13957e-21)
(-0.0036819 -0.01065 -3.98447e-23)
(-0.00602592 -0.011933 0)
(0.00426146 -0.00772851 0)
(-0.00733061 -0.0104793 6.57106e-21)
(0.0182858 -0.00215216 -1.59467e-20)
(-0.00944182 -0.00742057 -6.92328e-21)
(0.0389595 -0.000633821 3.96758e-21)
(-0.0152726 -0.00109857 0)
(-0.0149583 -0.00327363 0)
(-0.0142724 -0.00532628 1.41581e-23)
(-0.013394 -0.00726488 6.25335e-24)
(-0.0120096 -0.00887755 -8.98152e-23)
(-0.0108137 -0.0103914 2.26326e-23)
(-0.00853379 -0.0111541 -2.36355e-21)
(-0.00775781 -0.012222 0)
(-0.00354392 -0.0113609 -2.67684e-23)
(-0.00543689 -0.0124172 2.8627e-23)
(0.00450989 -0.00838493 0)
(-0.00618144 -0.0106409 0)
(0.0189327 -0.00275476 0)
(-0.00614824 -0.00680601 1.38738e-20)
(0.0451942 -0.00040752 0)
(-0.0154866 -0.00116113 0)
(-0.0151522 -0.00345719 2.08557e-22)
(-0.0144331 -0.0056253 4.06497e-22)
(-0.0134939 -0.00766426 0)
(-0.0120527 -0.00936873 1.49109e-21)
(-0.0107456 -0.0109358 5.63706e-23)
(-0.00841262 -0.0117592 4.75665e-21)
(-0.00743264 -0.012788 1.71461e-21)
(-0.00324715 -0.0119759 0)
(-0.00472233 -0.0128201 -7.75829e-23)
(0.00491014 -0.00890857 6.31445e-23)
(-0.00483255 -0.0107029 0)
(0.0200728 -0.0030454 3.2976e-23)
(-0.00206025 -0.00611242 -6.9268e-21)
(0.0518662 -0.000181036 7.95805e-21)
(-0.0154946 -0.00121721 9.17917e-24)
(-0.0151418 -0.00362101 -9.34218e-23)
(-0.014392 -0.00589157 -4.95229e-24)
(-0.0133967 -0.00801823 1.51661e-23)
(-0.0119024 -0.00980178 2.62446e-23)
(-0.0104923 -0.0114111 -5.8964e-23)
(-0.00810841 -0.0122817 5.41939e-23)
(-0.00693886 -0.0132653 -1.6708e-21)
(-0.00277778 -0.0124822 0)
(-0.00385957 -0.0131181 0)
(0.00550812 -0.00927532 0)
(-0.00319368 -0.0106146 0)
(0.0218006 -0.0030452 0)
(0.00280344 -0.00536636 0)
(0.0589561 4.17043e-05 -8.50164e-21)
(-0.0152823 -0.00126615 -1.02202e-23)
(-0.0149124 -0.00376315 -1.1045e-22)
(-0.0141344 -0.00612181 -8.51183e-22)
(-0.0130875 -0.00832216 -3.86329e-23)
(-0.011544 -0.0101706 -5.55113e-24)
(-0.0100385 -0.0118096 2.63465e-23)
(-0.00760574 -0.0127122 -2.57113e-21)
(-0.00625932 -0.0136413 3.38299e-23)
(-0.0021164 -0.0128647 3.71467e-23)
(-0.0028159 -0.0132864 -1.01045e-21)
(0.0063628 -0.00946101 7.31698e-21)
(-0.00117321 -0.0103419 0)
(0.0241883 -0.00278609 1.4263e-20)
(0.00841419 -0.00459185 1.83455e-23)
(0.0664422 0.000257765 -8.31776e-21)
(-0.0148344 -0.00130732 1.30383e-23)
(-0.0144489 -0.00388167 -1.11138e-24)
(-0.0136448 -0.0063127 4.4369e-22)
(-0.0125505 -0.00857135 -2.37085e-23)
(-0.0109611 -0.0104691 -1.73183e-21)
(-0.00936706 -0.0121234 -3.67717e-23)
(-0.00688689 -0.013041 -2.6113e-21)
(-0.00537334 -0.0139028 -2.24321e-21)
(-0.00123715 -0.0131073 0)
(-0.00154896 -0.0133015 9.92372e-22)
(0.00754195 -0.00944532 -7.45793e-21)
(0.0013155 -0.00986745 -3.02289e-21)
(0.0272859 -0.00230689 -1.46452e-20)
(0.0147354 -0.00380989 1.61914e-23)
(0.0743015 0.000465114 8.85835e-21)
(-0.0141348 -0.00134007 8.52995e-25)
(-0.0137349 -0.00397466 0)
(-0.0129069 -0.00646099 0)
(-0.0117687 -0.00876115 1.34759e-21)
(-0.0101364 -0.010691 1.77176e-21)
(-0.00845923 -0.0123444 9.32143e-24)
(-0.00593155 -0.0132579 5.44879e-21)
(-0.00425619 -0.0140361 4.61357e-21)
(-0.000107555 -0.0131936 0)
(-8.1654e-06 -0.013143 -1.61459e-21)
(0.00911742 -0.00921467 7.37018e-21)
(0.00434924 -0.00918919 2.93711e-21)
(0.0311229 -0.00164988 -1.40318e-20)
(0.0217246 -0.00303819 5.54061e-21)
(0.0825106 0.000662518 0)
(-0.0131668 -0.00136381 -1.41103e-23)
(-0.0127536 -0.00404027 -1.3247e-22)
(-0.0119034 -0.00656353 -1.85187e-23)
(-0.0107244 -0.008887 -5.9534e-22)
(-0.00905096 -0.0108302 -2.48864e-23)
(-0.00729436 -0.0124646 0)
(-0.00471653 -0.0133528 -2.7585e-21)
(-0.00287888 -0.0140282 -2.44818e-21)
(0.001311 -0.0131092 4.25557e-21)
(0.00186294 -0.0127954 1.68311e-21)
(0.0111607 -0.00876395 -1.48494e-20)
(0.00799149 -0.00831803 0)
(0.0357098 -0.000858046 1.44613e-20)
(0.0293352 -0.00229102 -5.76914e-21)
(0.0910461 0.000849433 -8.81961e-21)
(-0.0119131 -0.00137796 1.46587e-23)
(-0.0114875 -0.00407677 1.28073e-22)
(-0.0106162 -0.00661735 -4.90876e-22)
(-0.00939837 -0.00894464 -7.131e-22)
(-0.00768448 -0.0108809 -1.95958e-21)
(-0.00584982 -0.0124766 0)
(-0.0032158 -0.0133164 -4.5021e-23)
(-0.00120835 -0.0138678 4.22846e-23)
(0.00306212 -0.0128427 -4.35819e-21)
(0.00412377 -0.0122496 -8.50001e-23)
(0.0137385 -0.00809708 1.49686e-20)
(0.0122903 -0.00727516 1.3251e-21)
(0.0410406 2.72861e-05 1.38316e-20)
(0.0375188 -0.00157919 5.32917e-21)
(0.0998852 0.00102588 9.3254e-21)
(-0.0103559 -0.00138203 -2.89404e-23)
(-0.00991833 -0.00408261 -1.35636e-24)
(-0.00902645 -0.00661978 3.42774e-24)
(-0.00777071 -0.00893021 -7.68601e-22)
(-0.0060153 -0.0108382 -5.77233e-23)
(-0.00410112 -0.0123737 -4.30007e-23)
(-0.0014006 -0.013141 4.09485e-23)
(0.000791896 -0.0135459 0)
(0.0051928 -0.0123868 4.51471e-21)
(0.00683376 -0.0115036 8.70432e-23)
(0.0169098 -0.00722672 -2.01491e-22)
(0.0172778 -0.00608904 -2.53672e-21)
(0.0470958 0.00096811 -2.76845e-20)
(0.0462263 -0.000910271 -3.13928e-22)
(0.109006 0.00119229 0)
(-0.00847669 -0.00137557 1.56513e-23)
(-0.00802727 -0.00405644 0)
(-0.00711457 -0.00656855 5.37653e-22)
(-0.0058205 -0.0088404 -2.48799e-23)
(-0.00402055 -0.0106975 -5.70291e-23)
(-0.00202203 -0.0121505 -4.45784e-23)
(0.000760129 -0.0128203 -3.1274e-21)
(0.00316092 -0.0130565 -3.06636e-21)
(0.00775142 -0.0117392 -9.19077e-21)
(0.0100493 -0.0105629 8.89127e-23)
(0.0207229 -0.00617315 -1.50348e-20)
(0.0229699 -0.00479251 1.72729e-21)
(0.0538449 0.00193098 1.39418e-20)
(0.0554101 -0.000288786 -1.04525e-20)
(0.118389 0.00134943 -9.26345e-21)
(-0.00625676 -0.00135825 1.48809e-24)
(-0.00579517 -0.0039972 -1.58942e-22)
(-0.0048605 -0.00646185 -5.51111e-22)
(-0.00352612 -0.00867268 7.90372e-22)
(-0.00167628 -0.0104558 2.08235e-21)
(0.00041505 -0.0118032 2.5793e-21)
(0.00329915 -0.0123508 3.1531e-21)
(0.00593911 -0.0123976 3.09815e-21)
(0.0107857 -0.0109034 4.67714e-21)
(0.0138213 -0.00943993 9.05573e-23)
(0.0252139 -0.0049627 6.27484e-23)
(0.0293681 -0.00342014 -6.75451e-22)
(0.0612497 0.00288772 -1.31035e-20)
(0.0650245 0.00028335 1.02535e-20)
(0.128015 0.0014982 9.79334e-21)
(-0.00367712 -0.00132983 0)
(-0.00320257 -0.00390418 1.58119e-22)
(-0.00224376 -0.00629848 -1.55569e-23)
(-0.000865376 -0.00842539 0)
(0.00104219 -0.0101109 2.27189e-21)
(0.00323866 -0.0113299 -2.54062e-21)
(0.00625011 -0.0117318 3.26244e-21)
(0.00916685 -0.0115716 5.05804e-23)
(0.0143408 -0.00988826 -6.38464e-23)
(0.0181929 -0.00815338 -3.18484e-21)
(0.0304061 -0.00362588 7.54648e-21)
(0.0364607 -0.00200599 0)
(0.0692667 0.00381575 1.34728e-20)
(0.0750273 0.000806413 -2.39793e-22)
(0.137867 0.00163957 -3.17281e-23)
(-0.000718713 -0.00129022 1.60585e-24)
(-0.000229862 -0.00377704 -8.96804e-24)
(0.00075632 -0.00607794 6.00803e-22)
(0.00218421 -0.00809794 3.1587e-23)
(0.00415997 -0.00966267 -4.57572e-21)
(0.00647773 -0.010731 4.90797e-23)
(0.00964663 -0.0109658 1.38383e-23)
(0.012883 -0.0105851 -3.51389e-21)
(0.0184572 -0.00870792 4.82779e-21)
(0.0231981 -0.00672694 3.4469e-21)
(0.0363099 -0.00219552 -8.39363e-23)
(0.0442253 -0.000581796 4.09188e-22)
(0.0778498 0.00469801 -1.18617e-22)
(0.0853798 0.00128239 -5.05989e-21)
(0.14793 0.00177449 0)
(0.00263742 -0.00123944 0)
(0.00314245 -0.00361589 -7.59171e-24)
(0.00416038 -0.00580046 7.50107e-24)
(0.00564513 -0.00769092 0)
(0.00770213 -0.00911231 -4.73221e-23)
(0.0101609 -0.0100093 2.8539e-21)
(0.0135214 -0.0100587 -3.58579e-21)
(0.0171238 -0.00944877 3.60406e-21)
(0.0231694 -0.00738122 -4.95483e-21)
(0.0288609 -0.00518793 9.37758e-23)
(0.0429239 -0.000704836 -7.3892e-21)
(0.0526311 0.000824304 -2.85303e-22)
(0.0869523 0.00552259 0)
(0.0960476 0.00171451 4.68534e-21)
(0.158191 0.00190377 0)
(0.00640996 -0.00117769 1.71535e-24)
(0.0069336 -0.0034213 6.09523e-24)
(0.00798877 -0.00546715 -6.24633e-22)
(0.00953954 -0.00720619 -2.38577e-23)
(0.0116933 -0.008463 4.7895e-21)
(0.014316 -0.00917022 -2.77163e-21)
(0.0179049 -0.00901946 -4.96387e-23)
(0.0219212 -0.0081775 0)
(0.028505 -0.00593065 5.09412e-21)
(0.0351948 -0.00356582 -6.52403e-23)
(0.0502359 0.000814069 7.49862e-21)
(0.061641 0.0021886 7.34232e-23)
(0.0965286 0.0062822 1.18891e-20)
(0.107001 0.00210674 -4.85798e-21)
(0.168638 0.00202806 9.82148e-21)
(0.0106171 -0.00110531 2.16914e-23)
(0.0111623 -0.00319434 -7.99713e-24)
(0.0122613 -0.00507997 1.30813e-21)
(0.0138889 -0.00664691 0)
(0.016157 -0.00771975 -2.38791e-21)
(0.018969 -0.00822144 2.8595e-21)
(0.022825 -0.0078603 -9.31754e-24)
(0.0273021 -0.00678931 -3.79964e-21)
(0.0344833 -0.00438139 -5.08519e-21)
(0.0422037 -0.00189076 0)
(0.0582247 0.00233158 0)
(0.0712146 0.0034922 1.23843e-22)
(0.106536 0.00697341 -1.24559e-20)
(0.118213 0.00246344 0)
(0.17926 0.00214781 -2.02313e-20)
(0.0152764 -0.00102283 -2.35912e-23)
(0.0158466 -0.0029366 1.80304e-24)
(0.0169969 -0.00464176 3.6054e-23)
(0.0187137 -0.00601758 9.25738e-22)
(0.0211155 -0.00688937 0)
(0.0241438 -0.00717311 9.67215e-23)
(0.0283058 -0.00659603 -5.18261e-23)
(0.0332878 -0.00530482 7.83798e-21)
(0.0411159 -0.00276015 5.02254e-21)
(0.0498819 -0.000192277 4.0834e-21)
(0.0668621 0.00382147 0)
(0.0813094 0.00472099 0)
(0.116933 0.00759595 5.47183e-24)
(0.129661 0.00278894 -4.34806e-21)
(0.190047 0.00226324 4.07561e-22)
(0.0204043 -0.000930902 -1.15375e-23)
(0.0210035 -0.00265015 0)
(0.0222135 -0.00415625 -6.46832e-22)
(0.0240328 -0.00532397 -9.8118e-22)
(0.0265889 -0.00598039 -1.27894e-21)
(0.0298612 -0.00603743 8.8571e-23)
(0.0343669 -0.00524369 -5.27139e-23)
(0.0398932 -0.00374646 -4.05582e-21)
(0.0484063 -0.00109408 -5.16141e-21)
(0.0582158 0.00150186 -4.00508e-21)
(0.0761146 0.00526156 0)
(0.0918831 0.0058654 1.21713e-21)
(0.127686 0.00815183 0)
(0.141327 0.00308732 2.64509e-22)
(0.200993 0.00237438 1.04624e-20)
(0.0260164 -0.000830372 9.68981e-24)
(0.0266487 -0.00233757 2.05609e-22)
(0.0279274 -0.00362798 1.79646e-23)
(0.0298636 -0.00457303 9.58027e-22)
(0.0325951 -0.00500283 1.28653e-21)
(0.0361389 -0.00482831 -3.09398e-21)
(0.0410233 -0.00382194 -6.31073e-23)
(0.0471268 -0.0021376 -1.41345e-23)
(0.0563506 0.000590229 7.06069e-23)
(0.0671851 0.00316648 9.27357e-23)
(0.0859455 0.00663391 -2.25994e-23)
(0.102895 0.00691985 -1.41631e-21)
(0.138762 0.00864468 9.70188e-23)
(0.153195 0.00336216 4.44067e-21)
(0.212088 0.00248107 1.00521e-20)
(0.0321268 -0.000722212 0)
(0.0327966 -0.00200187 -2.04675e-22)
(0.0341535 -0.00306225 8.53351e-24)
(0.0362211 -0.00377276 -9.89054e-22)
(0.039149 -0.003968 4.58193e-23)
(0.0429906 -0.00356102 1.12851e-23)
(0.048285 -0.00235047 -5.40248e-23)
(0.0549909 -0.000501737 0)
(0.0649382 0.0022676 5.0872e-21)
(0.0767639 0.00477963 0)
(0.0963161 0.00792484 -6.67097e-21)
(0.114306 0.00788212 1.42685e-21)
(0.150133 0.00907905 -1.04958e-20)
(0.16525 0.00361645 0)
(0.223326 0.002583 -2.06106e-20)
(0.0387481 -0.000607527 -1.95666e-24)
(0.0394601 -0.00164646 1.94761e-24)
(0.0409045 -0.002465 7.36067e-22)
(0.0431182 -0.00293201 -2.66588e-23)
(0.0462628 -0.0028882 -1.32132e-21)
(0.0504262 -0.0022517 5.62433e-23)
(0.0561568 -0.000849359 -1.18437e-22)
(0.0634819 0.00113824 -1.3142e-23)
(0.0741525 0.00391498 5.25497e-23)
(0.0869228 0.00632288 1.99718e-23)
(0.107188 0.00912467 6.70401e-21)
(0.126081 0.00875266 4.82815e-23)
(0.161776 0.00945986 1.58762e-20)
(0.177482 0.00385252 4.36677e-23)
(0.234699 0.00267974 1.05166e-20)
(0.0458912 -0.000487532 1.24974e-23)
(0.0466499 -0.00127508 -2.11367e-22)
(0.0481913 -0.00184273 1.09672e-23)
(0.0505651 -0.00206033 -1.0146e-21)
(0.0539452 -0.0017764 1.32908e-21)
(0.0584513 -0.000916944 -1.59865e-21)
(0.0646386 0.00066148 0)
(0.0725906 0.0027607 -7.42624e-23)
(0.0839726 0.00551192 -5.04211e-21)
(0.0976296 0.00778144 8.88045e-23)
(0.118522 0.0102272 -2.0559e-23)
(0.138188 0.00953388 -1.70154e-21)
(0.173669 0.009792 -5.13978e-21)
(0.189879 0.00407204 -3.81344e-21)
(0.246202 0.00277079 -3.31157e-23)
(0.0535651 -0.000363527 -1.45457e-23)
(0.054375 -0.000891724 2.05409e-22)
(0.0560224 -0.00120229 3.34162e-25)
(0.0585694 -0.00116771 1.01979e-21)
(0.0622018 -0.000645935 -1.33151e-21)
(0.0670679 0.000426645 6.41447e-23)
(0.0737258 0.00216285 -5.47505e-23)
(0.0823032 0.00434577 0)
(0.0943736 0.00704088 -7.3904e-23)
(0.108851 0.00914406 1.56909e-22)
(0.130284 0.0112295 -8.11808e-23)
(0.150598 0.0102295 0)
(0.185794 0.01008 -2.23904e-24)
(0.202433 0.00427604 3.98661e-21)
(0.257828 0.00285562 0)
(0.061777 -0.000236871 0)
(0.0626421 -0.000500569 -8.90071e-24)
(0.0644038 -0.000550823 -1.10002e-21)
(0.0671358 -0.000264359 -1.03122e-21)
(0.0710346 0.000489826 2.70696e-21)
(0.0762735 0.00176288 1.66898e-21)
(0.0834093 0.00363671 -3.88191e-21)
(0.0926021 0.0058757 -7.29306e-23)
(0.105328 0.00848732 -3.31006e-24)
(0.120553 0.0104027 1.54424e-22)
(0.142438 0.0121307 5.95391e-21)
(0.163286 0.010844 0)
(0.198136 0.0103277 0)
(0.215135 0.00446505 0)
(0.269571 0.00293368 0)
(0.0705318 -0.000108956 -2.01509e-24)
(0.071456 -0.000105884 1.09194e-23)
(0.0733393 0.000104461 2.04514e-23)
(0.0762661 0.000639505 2.01913e-21)
(0.0804425 0.00161779 -1.29221e-21)
(0.0860622 0.00307634 -1.01471e-22)
(0.0936765 0.00506653 7.70744e-21)
(0.103466 0.00733509 -7.19644e-23)
(0.116807 0.00983974 6.89686e-23)
(0.132702 0.0115524 0)
(0.154953 0.0129321 -6.13395e-21)
(0.176229 0.0113822 0)
(0.210682 0.0105384 -4.51384e-21)
(0.227977 0.00463915 -1.22117e-24)
(0.281424 0.0030045 -9.96586e-21)
(0.0798325 1.88219e-05 0)
(0.0808189 0.000288055 2.04596e-22)
(0.0828299 0.000756388 2.71694e-24)
(0.0859595 0.00153388 -1.02524e-21)
(0.0904211 0.00272541 1.31913e-21)
(0.096425 0.00435269 -1.52718e-21)
(0.104511 0.00643757 -5.75605e-21)
(0.114872 0.00871105 -4.02111e-21)
(0.128781 0.0110894 0)
(0.145268 0.0125904 8.11327e-23)
(0.167801 0.0136363 -7.62939e-23)
(0.189408 0.0118487 0)
(0.223418 0.0107148 2.54831e-22)
(0.240951 0.00479809 0)
(0.293381 0.00306764 1.0385e-20)
(0.0896798 0.000145087 2.00912e-24)
(0.0907309 0.000677047 -2.07469e-22)
(0.0928744 0.00139797 3.6037e-22)
(0.0962123 0.00240918 0)
(0.100963 0.0038009 -1.32671e-21)
(0.107349 0.00557888 3.16044e-21)
(0.115895 0.00773701 1.8297e-21)
(0.126795 0.00999312 4.04843e-21)
(0.141219 0.0122303 6.68674e-23)
(0.158218 0.0135162 7.89465e-23)
(0.180955 0.0142467 -7.44473e-23)
(0.202804 0.0122481 -1.72781e-21)
(0.236334 0.0108587 4.48183e-21)
(0.254049 0.0049414 0)
(0.305437 0.00312275 9.81739e-21)
(0.100072 0.000268514 0)
(0.10119 0.00105704 2.11046e-22)
(0.103469 0.00202255 3.72182e-22)
(0.107018 0.00325638 9.70627e-24)
(0.112059 0.00483347 -3.59859e-23)
(0.118821 0.00674335 -1.52354e-21)
(0.127808 0.00895405 -1.87412e-21)
(0.139209 0.0111732 -6.80824e-23)
(0.154092 0.0132585 -2.34207e-24)
(0.171526 0.0143308 -3.82949e-21)
(0.194392 0.0147673 0)
(0.216404 0.0125843 1.76139e-21)
(0.24942 0.0109716 0)
(0.267263 0.00506852 3.2203e-21)
(0.317585 0.00316957 -4.87688e-22)
(0.111006 0.000387846 1.05309e-23)
(0.112192 0.00142422 -2.01132e-22)
(0.114608 0.00262388 -5.39826e-24)
(0.118369 0.00406721 0)
(0.123696 0.00581344 4.47682e-23)
(0.130822 0.00783613 9.24217e-24)
(0.140226 0.0100799 3.57092e-21)
(0.152088 0.0122454 -6.65233e-23)
(0.167372 0.0141722 -2.11095e-24)
(0.185163 0.0150364 4.08232e-21)
(0.20809 0.0152021 -7.05333e-23)
(0.230192 0.0128609 0)
(0.262664 0.0110545 -1.19632e-25)
(0.280587 0.00517882 -3.31648e-21)
(0.329818 0.00320795 -4.87162e-22)
(0.122476 0.000501921 -1.25627e-23)
(0.12373 0.00177502 -8.61849e-24)
(0.126283 0.00319625 -6.62005e-22)
(0.130253 0.0048342 -2.62302e-23)
(0.13586 0.00673234 -1.25562e-21)
(0.143334 0.00884885 1.49827e-21)
(0.153128 0.0111077 -1.80111e-21)
(0.165404 0.0132059 -1.93381e-21)
(0.18103 0.0149712 6.27036e-23)
(0.199107 0.0156361 7.20537e-23)
(0.222029 0.0155554 -2.55838e-21)
(0.244155 0.0130809 -8.3044e-23)
(0.276057 0.011108 7.68224e-23)
(0.294013 0.00527175 0)
(0.342132 0.00323784 -4.85704e-22)
(0.134475 0.000609682 0)
(0.135795 0.00210625 -9.74239e-23)
(0.138484 0.00373453 3.47006e-22)
(0.142659 0.00555081 0)
(0.148535 0.00758297 2.99991e-23)
(0.156337 0.00977479 -3.91748e-23)
(0.166489 0.0120324 0)
(0.179131 0.0140525 1.82217e-21)
(0.195041 0.0156565 2.18765e-21)
(0.213333 0.0161334 -6.03745e-23)
(0.236193 0.015831 4.98095e-21)
(0.258283 0.0132471 -4.87409e-23)
(0.289591 0.0111324 2.95363e-25)
(0.307532 0.00534681 -2.92578e-21)
(0.354519 0.00325926 -9.83216e-21)
(0.146992 0.000710196 -1.89728e-24)
(0.148379 0.00241505 9.13798e-23)
(0.151199 0.00423426 8.30365e-24)
(0.155571 0.00621147 9.06999e-22)
(0.161703 0.00835943 6.6039e-23)
(0.16981 0.0106087 -1.42816e-21)
(0.180285 0.0128506 -1.71647e-21)
(0.193245 0.0147845 -1.83807e-21)
(0.209381 0.0162304 -1.96435e-21)
(0.22782 0.0165324 8.62017e-24)
(0.250564 0.0160329 -1.36214e-22)
(0.272562 0.0133615 7.9593e-22)
(0.303255 0.0111283 -3.55994e-21)
(0.321138 0.00540366 3.00556e-21)
(0.366975 0.00327235 0)
(0.160018 0.000802659 0)
(0.161468 0.00269897 -9.38433e-23)
(0.164415 0.00469163 2.51258e-23)
(0.168974 0.00681156 -4.92612e-23)
(0.175345 0.00905709 2.3942e-21)
(0.183731 0.011347 -4.86427e-23)
(0.194492 0.0135606 1.67337e-21)
(0.20772 0.0154027 1.84457e-21)
(0.224024 0.0166956 1.9356e-21)
(0.24255 0.0168372 1.70697e-21)
(0.265128 0.0161645 -1.19104e-22)
(0.286984 0.0134264 -1.01843e-22)
(0.317041 0.0110958 3.70654e-21)
(0.334824 0.00544208 -5.29819e-25)
(0.379494 0.00327732 -9.03459e-21)
(0.173539 0.000886404 -1.8195e-24)
(0.175049 0.00295599 8.80412e-23)
(0.178116 0.00510356 7.97604e-24)
(0.18285 0.00734748 -9.26202e-22)
(0.189441 0.00967252 -1.14625e-21)
(0.198078 0.0119873 7.56501e-24)
(0.209087 0.0141619 -4.64559e-23)
(0.222533 0.0159087 1.6183e-21)
(0.238951 0.0170556 -1.9557e-21)
(0.257504 0.017052 -1.80642e-23)
(0.27987 0.0162291 -6.88208e-23)
(0.301537 0.0134433 -1.70502e-21)
(0.33094 0.0110354 -3.30243e-21)
(0.348583 0.00546203 2.64805e-21)
(0.392071 0.00327446 9.33015e-21)
(0.187541 0.000960903 0)
(0.189108 0.00318446 0)
(0.192286 0.00546762 0)
(0.197182 0.00781653 0)
(0.203972 0.0102035 0)
(0.21283 0.0125284 4.59472e-23)
(0.224045 0.0146549 -9.59821e-23)
(0.23766 0.016305 -3.31861e-21)
(0.254139 0.0173144 1.09303e-22)
(0.272665 0.017181 -1.66543e-21)
(0.294777 0.01623 -2.2311e-21)
(0.316211 0.0134141 1.62739e-21)
(0.344942 0.0109474 6.54471e-21)
(0.362407 0.0054636 -5.27292e-21)
(0.404701 0.0032641 0)
(0.202009 0.00102577 8.83706e-24)
(0.203628 0.00338319 9.35418e-24)
(0.206909 0.00578209 -7.59364e-24)
(0.211951 0.00821695 0)
(0.218917 0.0106487 0)
(0.227963 0.0129705 4.45364e-23)
(0.239345 0.0150414 1.43532e-21)
(0.253081 0.016595 3.15237e-21)
(0.269571 0.017476 -1.68689e-21)
(0.288019 0.0172282 0)
(0.309837 0.0161699 4.39757e-23)
(0.330998 0.0133404 -7.35265e-23)
(0.359041 0.0108324 -3.23835e-21)
(0.376291 0.00544703 5.09261e-21)
(0.417379 0.00324665 0)
(0.216927 0.00108073 -1.06087e-23)
(0.218593 0.00355136 0)
(0.221965 0.00604588 2.27111e-23)
(0.227136 0.00854783 -5.27544e-23)
(0.234254 0.0110081 2.9911e-23)
(0.243456 0.0133144 0)
(0.254965 0.0153238 -1.48923e-21)
(0.268774 0.0167822 -1.63382e-21)
(0.285227 0.0175449 1.80562e-21)
(0.303549 0.0171979 0)
(0.325038 0.0160517 0)
(0.345888 0.0132237 -7.28112e-22)
(0.373227 0.0106911 -5.94534e-23)
(0.39023 0.0054127 -4.91467e-21)
(0.430101 0.00322252 0)
(0.232277 0.00112568 -1.62454e-24)
(0.233985 0.00368853 -5.5822e-24)
(0.237438 0.0062585 -1.48683e-23)
(0.24272 0.00880902 -3.80429e-22)
(0.249964 0.0112822 -3.57974e-23)
(0.259288 0.0135619 1.24217e-21)
(0.270884 0.0155051 0)
(0.284721 0.016871 -4.97742e-23)
(0.301091 0.0175255 1.6583e-21)
(0.319242 0.017094 5.3382e-23)
(0.340368 0.0158783 -5.16532e-23)
(0.360873 0.0130659 0)
(0.387494 0.0105243 0)
(0.404216 0.00536107 2.43795e-21)
(0.442862 0.00319218 0)
(0.248042 0.00116059 4.67129e-24)
(0.249786 0.00379462 7.94859e-23)
(0.253307 0.00642004 0)
(0.258681 0.0090011 -1.35876e-23)
(0.266025 0.0114725 6.26941e-23)
(0.275438 0.0137157 -2.45391e-21)
(0.287081 0.0155891 -1.29047e-21)
(0.300903 0.0168656 1.36018e-21)
(0.317147 0.0174223 -7.79807e-23)
(0.335086 0.0169204 4.61651e-23)
(0.355818 0.0156523 3.92368e-23)
(0.375944 0.0128685 2.04621e-23)
(0.401833 0.010333 -5.56415e-23)
(0.418245 0.00529271 0)
(0.455659 0.00315609 0)
(0.264205 0.00118557 -6.20552e-24)
(0.265977 0.00386988 -7.83162e-23)
(0.269553 0.00653108 0)
(0.275 0.00912529 4.18772e-22)
(0.282417 0.0115811 -2.7161e-23)
(0.291886 0.0137789 1.17238e-21)
(0.303537 0.0155798 1.33869e-21)
(0.317302 0.0167707 -1.41838e-21)
(0.333381 0.0172399 -1.51371e-21)
(0.351068 0.0166809 -4.43844e-23)
(0.371377 0.0153764 0)
(0.391094 0.0126335 7.48298e-22)
(0.416238 0.010118 -5.2546e-23)
(0.432312 0.00520826 -7.82611e-25)
(0.468487 0.00311474 0)
(0.280745 0.00120081 0)
(0.28254 0.00391486 0)
(0.286158 0.00659268 0)
(0.291657 0.00918333 -3.63617e-22)
(0.299121 0.0116106 -4.60607e-22)
(0.308613 0.013755 0)
(0.320235 0.0154817 0)
(0.333902 0.0165913 -4.41229e-23)
(0.349777 0.0169828 -3.56395e-25)
(0.367177 0.0163793 8.95606e-23)
(0.387035 0.0150533 -4.56353e-23)
(0.406315 0.0123626 -1.37087e-21)
(0.430703 0.00988052 8.13024e-25)
(0.446413 0.00510841 -7.73751e-25)
(0.481343 0.00306861 0)
(0.297645 0.00120661 0)
(0.299455 0.00393038 0)
(0.303103 0.0066063 -2.50096e-22)
(0.308633 0.00917751 3.65342e-22)
(0.316117 0.0115642 5.01006e-23)
(0.325599 0.0136483 -3.07225e-23)
(0.337156 0.0152994 0)
(0.350688 0.0163321 1.20888e-21)
(0.366322 0.0166555 -2.84831e-25)
(0.383401 0.0160195 4.09212e-23)
(0.402784 0.0146856 1.55867e-21)
(0.4216 0.0120576 6.94856e-22)
(0.445221 0.00962169 -4.81469e-23)
(0.460543 0.00499387 -7.62805e-25)
(0.494223 0.00301816 0)
(0.314885 0.00120333 -1.34438e-24)
(0.316705 0.00391747 -6.12564e-23)
(0.320367 0.00657374 4.16043e-24)
(0.325909 0.00911049 -2.45627e-23)
(0.333387 0.0114456 4.70515e-22)
(0.342828 0.0134629 3.448e-23)
(0.354285 0.0150378 1.10382e-21)
(0.367645 0.0159982 -1.30024e-21)
(0.383006 0.0162627 -2.21545e-25)
(0.399732 0.0156051 3.92539e-23)
(0.418615 0.014276 -8.32652e-23)
(0.436942 0.0117206 0)
(0.459786 0.00934267 -2.24857e-21)
(0.474699 0.0048654 1.88931e-21)
(0.507125 0.00296385 -6.82677e-21)
(0.332449 0.00119139 0)
(0.33427 0.0038774 6.8953e-23)
(0.337934 0.00649714 2.24213e-22)
(0.343467 0.00898532 1.77815e-23)
(0.350913 0.0112585 2.87303e-23)
(0.360281 0.0132036 -5.44361e-22)
(0.371606 0.014702 -1.11187e-21)
(0.384759 0.0155945 -3.88774e-23)
(0.399814 0.0158087 -1.65875e-25)
(0.416158 0.0151399 3.76391e-23)
(0.434521 0.0138272 -2.82905e-21)
(0.452336 0.0113535 1.53529e-23)
(0.474393 0.00904464 2.23405e-21)
(0.488876 0.00472373 -1.91952e-21)
(0.520045 0.0029061 6.95491e-21)
(0.350317 0.0011713 2.11216e-24)
(0.352133 0.00381159 1.23053e-24)
(0.355784 0.0063789 1.72054e-23)
(0.361289 0.00880535 5.63605e-24)
(0.368677 0.0110072 -2.26031e-23)
(0.377944 0.0128753 4.53501e-22)
(0.389103 0.0142972 3.14776e-23)
(0.402019 0.0151262 0)
(0.416738 0.015298 -1.16234e-21)
(0.432672 0.0146273 -1.11528e-21)
(0.450493 0.0133419 1.40344e-21)
(0.467775 0.0109581 4.40862e-23)
(0.489038 0.00872877 -4.26755e-23)
(0.50307 0.00456961 2.09687e-23)
(0.532981 0.0028453 -2.00577e-23)
(0.368471 0.00114359 -7.66679e-24)
(0.370276 0.00372164 6.20251e-23)
(0.373901 0.00622162 0)
(0.379359 0.00857416 3.01717e-22)
(0.386664 0.0106962 0)