/*--------------------------------*- C++ -*----------------------------------*\
| =========                 |                                                 |
| \\      /  F ield         | OpenFOAM: The Open Source CFD Toolbox           |
|  \\    /   O peration     | Version:  5.x                                   |
|   \\  /    A nd           | Web:      www.OpenFOAM.org                      |
|    \\/     M anipulation  |                                                 |
\*---------------------------------------------------------------------------*/
FoamFile
{
    version     2.0;
    format      ascii;
    class       volScalarField;
    location    "0.01";
    object      p;
}
// * * * * * * * * * * * * * * * * * * * * * * * * * * * * * * * * * * * * * //

dimensions      [0 2 -2 0 0 0 0];

internalField   nonuniform List<scalar> 
7200
(
0.000137828
0.0615068
0.170259
0.179793
0.425196
0.140378
1.0874
-0.749088
3.74273
-5.91957
15.7805
-29.5994
58.542
-82.5195
73.4332
0.00205573
0.0672622
0.177381
0.197577
0.426325
0.201832
1.00583
-0.451591
3.12525
-4.33122
12.3698
-22.587
47.3515
-69.9964
67.9823
0.00405614
0.0722131
0.185063
0.211341
0.434525
0.240438
0.976487
-0.289991
2.82702
-3.48985
10.5483
-18.5004
40.2197
-61.1329
64.18
0.00592448
0.0773045
0.192549
0.225181
0.443179
0.276311
0.956932
-0.157978
2.61165
-2.86336
9.25079
-15.5199
34.8038
-53.8642
60.713
0.00773161
0.0827578
0.200183
0.239789
0.452426
0.312223
0.942646
-0.0383801
2.43856
-2.3416
8.2154
-13.1055
30.3234
-47.484
57.4839
0.00952032
0.0885074
0.208091
0.25494
0.462683
0.347616
0.934232
0.0692273
2.30368
-1.91091
7.40321
-11.1697
26.6776
-41.924
54.5092
0.0113148
0.0945076
0.216307
0.270518
0.474022
0.382443
0.931189
0.166921
2.19981
-1.55235
6.76978
-9.62026
23.7583
-37.1213
51.7677
0.0131347
0.100739
0.224861
0.286495
0.486445
0.416894
0.932773
0.257166
2.11973
-1.24673
6.27152
-8.36108
21.4323
-32.9842
49.2325
0.0149958
0.107186
0.233772
0.302853
0.499948
0.451136
0.938409
0.341802
2.05828
-0.979556
5.87616
-7.317
19.5823
-29.4272
46.8819
0.0169101
0.113837
0.243052
0.319581
0.514513
0.485295
0.947654
0.422186
2.0119
-0.740152
5.56011
-6.4316
18.1094
-26.3751
44.6971
0.0188857
0.120678
0.252706
0.336663
0.530112
0.519473
0.96015
0.499368
1.97812
-0.520644
5.30572
-5.66286
16.9298
-23.7602
42.6617
0.0209284
0.127696
0.262728
0.354087
0.546708
0.553746
0.975609
0.574163
1.95518
-0.315418
5.09965
-4.98035
15.973
-21.5212
40.7612
0.0230411
0.134879
0.273108
0.371834
0.564251
0.588168
0.993786
0.647201
1.94181
-0.120674
4.93164
-4.36297
15.1813
-19.6034
38.9823
0.0252244
0.14221
0.283826
0.389879
0.582685
0.622766
1.01446
0.718941
1.93694
0.06595
4.79363
-3.79684
14.5082
-17.9577
37.3133
0.0274767
0.149673
0.294857
0.408189
0.601939
0.657539
1.03742
0.789677
1.9396
0.245697
4.67907
-3.27341
13.9171
-16.5408
35.7436
0.0297942
0.157246
0.306166
0.426723
0.621925
0.692455
1.06242
0.859542
1.94879
0.418987
4.58239
-2.78791
13.3801
-15.3147
34.2636
0.0321711
0.164905
0.317711
0.445425
0.642541
0.727446
1.0892
0.928507
1.96343
0.585582
4.4989
-2.33812
12.8768
-14.2466
32.8646
0.0345993
0.172624
0.329442
0.464228
0.663663
0.762404
1.11744
0.996386
1.98236
0.744807
4.42443
-1.92331
12.3927
-13.3082
31.5388
0.0370689
0.180368
0.341298
0.483052
0.685148
0.797181
1.14676
1.06286
2.0043
0.895716
4.3554
-1.54342
11.9186
-12.4756
30.279
0.0395678
0.188101
0.353211
0.5018
0.706828
0.831584
1.17674
1.12747
2.02793
1.03729
4.28866
-1.19855
11.4491
-11.7288
29.0789
0.0420822
0.195783
0.365102
0.520362
0.728513
0.865382
1.20691
1.1897
2.05196
1.16842
4.22156
-0.888596
10.9817
-11.0516
27.9328
0.0445965
0.203366
0.376886
0.538613
0.749996
0.898308
1.23676
1.24895
2.07508
1.28813
4.15198
-0.613003
10.5161
-10.4308
26.8358
0.0470935
0.210803
0.388469
0.556418
0.77105
0.930067
1.26575
1.3046
2.09608
1.3956
4.0783
-0.370705
10.0533
-9.85584
25.7834
0.0495549
0.218038
0.39975
0.573628
0.791435
0.960349
1.29335
1.35603
2.11388
1.49022
3.99938
-0.160117
9.59544
-9.31869
24.7716
0.0519611
0.225017
0.410626
0.590092
0.810905
0.988829
1.31901
1.40267
2.12752
1.57161
3.9146
0.0207965
9.14479
-8.81319
23.7972
0.054292
0.231681
0.42099
0.60565
0.829212
1.01519
1.34224
1.44401
2.13623
1.63966
3.82373
0.174412
8.70377
-8.33483
22.8572
0.0565271
0.237973
0.430733
0.620146
0.846114
1.03913
1.36259
1.47963
2.13945
1.69449
3.72692
0.303326
8.2746
-7.88036
21.9492
0.058646
0.243835
0.439751
0.633428
0.861382
1.06037
1.37965
1.50921
2.13679
1.73648
3.62465
0.410228
7.85917
-7.44751
21.0711
0.060629
0.249211
0.447942
0.645352
0.874805
1.07866
1.3931
1.53255
2.12805
1.7662
3.51759
0.497789
7.45895
-7.03477
20.2211
0.062457
0.254048
0.455213
0.655787
0.886195
1.0938
1.40269
1.54955
2.11321
1.78439
3.4066
0.568566
7.07495
-6.64114
19.3979
0.0641126
0.258299
0.461478
0.664617
0.895396
1.10564
1.40825
1.56023
2.09241
1.79192
3.29261
0.624928
6.70777
-6.26598
18.6003
0.0655798
0.261921
0.466664
0.671748
0.902284
1.11407
1.40969
1.56471
2.0659
1.78975
3.17659
0.669014
6.35761
-5.90885
17.8274
0.0668449
0.264878
0.47071
0.677105
0.906769
1.11904
1.407
1.56322
2.03407
1.77889
3.05946
0.702705
6.02437
-5.56943
17.0785
0.0678964
0.267141
0.47357
0.680636
0.908798
1.12056
1.40025
1.55606
1.99737
1.76038
2.94211
0.727618
5.70769
-5.24743
16.3529
0.0687253
0.26869
0.475212
0.682313
0.908356
1.11866
1.38955
1.54357
1.95631
1.73521
2.82531
0.745118
5.40699
-4.94252
15.6501
0.0693253
0.269513
0.475619
0.682133
0.905461
1.11345
1.3751
1.52618
1.91142
1.70436
2.70976
0.75634
5.12162
-4.65434
14.9699
0.0696929
0.269605
0.474792
0.680115
0.900164
1.10505
1.35713
1.50433
1.86327
1.66873
2.59601
0.762217
4.85082
-4.38245
14.3117
0.0698273
0.268972
0.472745
0.6763
0.892546
1.09365
1.33589
1.47849
1.8124
1.62915
2.48453
0.763514
4.59384
-4.12632
13.6755
0.0697302
0.267626
0.469506
0.670751
0.882717
1.07943
1.31168
1.44912
1.75933
1.58639
2.37567
0.760855
4.3499
-3.88539
13.0608
0.0694062
0.265588
0.465117
0.663547
0.870807
1.06263
1.28481
1.41671
1.70457
1.54113
2.26969
0.754761
4.11827
-3.65901
12.4673
0.0688619
0.262886
0.459631
0.654784
0.856964
1.04346
1.25561
1.3817
1.64858
1.49395
2.16679
0.74567
3.89827
-3.4465
11.8948
0.0681062
0.259553
0.453114
0.644571
0.841354
1.02219
1.22438
1.34453
1.59179
1.44539
2.06708
0.733964
3.68928
-3.24713
11.3429
0.0671501
0.25563
0.445638
0.633028
0.82415
0.999072
1.19145
1.30562
1.53457
1.39591
1.97064
0.71998
3.4907
-3.06018
10.8113
0.0660061
0.25116
0.437283
0.620283
0.805535
0.974351
1.15713
1.26536
1.47727
1.34591
1.87752
0.704032
3.30202
-2.88488
10.2996
0.064688
0.246191
0.428136
0.606471
0.785696
0.948285
1.12172
1.22411
1.4202
1.29572
1.78771
0.686411
3.12275
-2.7205
9.80728
0.063211
0.240775
0.418288
0.591729
0.764819
0.92112
1.0855
1.1822
1.36363
1.24566
1.70121
0.667395
2.95245
-2.56631
9.3339
0.0615912
0.234966
0.407831
0.576198
0.743091
0.893096
1.04873
1.13994
1.3078
1.19599
1.618
0.647251
2.79072
-2.4216
8.87892
0.059845
0.228818
0.396861
0.560016
0.720695
0.864443
1.01168
1.0976
1.25292
1.14692
1.53806
0.626236
2.63717
-2.28568
8.4418
0.0579898
0.222387
0.385473
0.543324
0.697808
0.835379
0.974573
1.05545
1.19917
1.09868
1.46136
0.604594
2.49144
-2.15787
8.02193
0.0560427
0.21573
0.373762
0.526255
0.674604
0.806112
0.937627
1.0137
1.14672
1.05144
1.38787
0.582562
2.3532
-2.03756
7.61869
0.0540211
0.208901
0.361821
0.508942
0.651246
0.776837
0.901044
0.972559
1.09571
1.00535
1.31755
0.56036
2.22212
-1.92413
7.23143
0.0519425
0.201955
0.349741
0.491513
0.627892
0.747737
0.86501
0.932225
1.04627
0.960573
1.25037
0.538198
2.09788
-1.81701
6.85948
0.0498239
0.194947
0.337612
0.47409
0.604692
0.718984
0.829694
0.892864
0.998516
0.917224
1.1863
0.516268
1.98016
-1.71567
6.50214
0.047682
0.187927
0.325519
0.45679
0.581786
0.690736
0.795254
0.854631
0.952547
0.875423
1.12531
0.49475
1.86868
-1.61959
6.15873
0.0455333
0.180947
0.313544
0.439724
0.559307
0.663141
0.761832
0.817665
0.908452
0.835273
1.06738
0.473807
1.76313
-1.52828
5.82853
0.0433937
0.174055
0.301766
0.422999
0.53738
0.636339
0.729562
0.782094
0.866314
0.796869
1.01246
0.453588
1.66324
-1.4413
5.51083
0.0412786
0.167298
0.290259
0.406715
0.516123
0.610456
0.698564
0.748033
0.826206
0.760298
0.96053
0.434231
1.56874
-1.35822
5.20496
0.0392028
0.160719
0.279096
0.390966
0.495646
0.585612
0.668952
0.71559
0.788196
0.725637
0.911562
0.415859
1.47936
-1.27865
4.91022
0.0371808
0.154362
0.268344
0.37584
0.476051
0.561919
0.64083
0.684864
0.752346
0.69296
0.865529
0.398584
1.39486
-1.20222
4.62596
0.0352264
0.148266
0.258066
0.361423
0.457435
0.539479
0.614296
0.655945
0.718716
0.662334
0.822409
0.38251
1.31501
-1.12857
4.35153
0.0333526
0.142471
0.248324
0.347794
0.43989
0.51839
0.58944
0.628922
0.687363
0.633826
0.782184
0.367736
1.23959
-1.05741
4.08635
0.0315724
0.137012
0.239176
0.335027
0.423501
0.498743
0.566349
0.603875
0.658343
0.6075
0.744844
0.354351
1.16842
-0.988429
3.82985
0.0298978
0.131924
0.230675
0.323193
0.40835
0.480627
0.545106
0.580886
0.631712
0.58342
0.710384
0.342446
1.10132
-0.92137
3.58152
0.0283405
0.12724
0.222873
0.31236
0.394513
0.464122
0.525791
0.560032
0.607529
0.561653
0.678811
0.332109
1.03815
-0.855993
3.34093
0.0269117
0.122992
0.215819
0.302591
0.382064
0.44931
0.508482
0.54139
0.585854
0.542268
0.650143
0.32343
0.978802
-0.792086
3.10771
0.0256221
0.119207
0.209559
0.293945
0.371072
0.436266
0.493254
0.525038
0.566753
0.525341
0.624408
0.316501
0.9232
-0.729465
2.88156
0.0244819
0.115915
0.204137
0.286481
0.361605
0.425064
0.480183
0.511056
0.550296
0.510951
0.601651
0.311421
0.871305
-0.667977
2.66231
0.0235007
0.113142
0.199595
0.280252
0.353727
0.415777
0.469346
0.499523
0.536557
0.499188
0.581931
0.308297
0.823119
-0.607499
2.44991
0.0226878
0.110912
0.195971
0.275311
0.3475
0.408475
0.460817
0.490524
0.525618
0.490148
0.565326
0.307244
0.77869
-0.547942
2.24442
0.0220517
0.109249
0.193301
0.271706
0.342983
0.403227
0.454671
0.484143
0.517566
0.483937
0.551929
0.308389
0.738116
-0.489254
2.04611
0.0216006
0.108173
0.191621
0.269483
0.340232
0.4001
0.450984
0.480468
0.512494
0.480669
0.54185
0.31187
0.70155
-0.431428
1.85542
0.0213417
0.107704
0.19096
0.268684
0.339299
0.399158
0.44983
0.479589
0.510503
0.480468
0.535221
0.317838
0.669198
-0.374503
1.67303
0.0212819
0.107861
0.191347
0.269349
0.340236
0.400463
0.451284
0.481596
0.511694
0.483466
0.532185
0.32646
0.641325
-0.31858
1.49993
0.0214268
0.108657
0.192807
0.271512
0.343087
0.404073
0.455415
0.48658
0.516177
0.489805
0.532903
0.337917
0.618258
-0.26383
1.33741
0.0217815
0.110107
0.195361
0.275204
0.347893
0.410042
0.462295
0.494632
0.524061
0.499632
0.537553
0.352402
0.600393
-0.210532
1.18721
0.0223486
0.112216
0.199022
0.280443
0.354681
0.418407
0.471969
0.505822
0.535434
0.513075
0.546298
0.370092
0.588175
-0.159125
1.05155
0.0231282
0.114983
0.203784
0.287225
0.363448
0.429174
0.484456
0.520185
0.550347
0.530234
0.559253
0.391178
0.581996
-0.110078
0.933023
0.024137
0.118462
0.209742
0.295684
0.374369
0.442562
0.500014
0.538043
0.569147
0.551571
0.576831
0.416315
0.582457
-0.0635681
0.834824
0.0254362
0.122856
0.217244
0.306319
0.388098
0.459379
0.519618
0.560499
0.593152
0.578347
0.600858
0.44632
0.592942
-0.0225552
0.764486
0.0267428
0.127269
0.224801
0.317064
0.402064
0.476541
0.539917
0.583586
0.618953
0.605336
0.630027
0.472092
0.620412
-0.00616549
0.738202
-73.4725
82.4798
-58.5847
29.5504
-15.8284
5.86824
-3.79284
0.698229
-1.13763
-0.190827
-0.475614
-0.230449
-0.221161
-0.112849
-0.0520037
0.0343784
0.0952297
0.203577
0.212878
0.458181
0.173446
1.12088
-0.714789
3.77804
-5.88379
15.815
-29.5683
58.5675
-82.5008
73.4411
-68.0217
69.9568
-47.393
22.5389
-12.4174
4.2803
-3.17535
0.400787
-1.05609
-0.252256
-0.476714
-0.248184
-0.22822
-0.118498
-0.0536657
0.0360312
0.100871
0.21063
0.230615
0.459292
0.234933
1.03941
-0.417162
3.16056
-4.29582
12.4034
-22.5575
47.3749
-69.9802
67.9888
-64.2193
61.0933
-40.2603
18.4533
-10.5954
3.43938
-2.877
0.239249
-1.02675
-0.290836
-0.484873
-0.261886
-0.235822
-0.123319
-0.055425
0.0377741
0.105677
0.218219
0.244313
0.467463
0.273571
1.01016
-0.255475
2.86221
-3.45505
10.5807
-18.4727
40.2409
-61.1192
64.1852
-60.7523
53.8245
-34.8437
15.4737
-9.29721
2.81341
-2.66142
0.10734
-1.00717
-0.326672
-0.493476
-0.275654
-0.243215
-0.128268
-0.057071
0.0393946
0.110602
0.225592
0.258071
0.476076
0.309461
0.990666
-0.123468
2.64656
-2.82938
9.28175
-15.4942
34.8227
-53.8526
60.7175
-57.5233
47.4442
-30.3626
13.0602
-8.26111
2.29224
-2.48803
-0.0120982
-0.99282
-0.362531
-0.502663
-0.290182
-0.250747
-0.133574
-0.0586801
0.0409674
0.115873
0.233094
0.272581
0.485267
0.345365
0.97638
-0.00399967
2.47298
-2.30865
8.24475
-13.0817
30.3401
-47.4742
57.4878
-54.5487
41.884
-26.7163
11.1252
-7.44819
1.86218
-2.35278
-0.119489
-0.984307
-0.397851
-0.512847
-0.305245
-0.258547
-0.139176
-0.0602912
0.0425305
0.121429
0.240853
0.287616
0.495445
0.380712
0.967887
0.103339
2.33743
-1.87918
7.43084
-11.1479
26.6924
-41.9157
54.5128
-51.8073
37.0811
-23.7967
9.5765
-6.81404
1.50427
-2.24847
-0.216909
-0.981122
-0.432581
-0.5241
-0.320727
-0.266649
-0.14503
-0.0619215
0.0440998
0.127225
0.248902
0.303059
0.506679
0.415442
0.964672
0.200618
2.23272
-1.52198
6.79565
-9.60042
23.7714
-37.1141
51.7709
-49.2723
32.9437
-21.4704
8.31792
-6.3151
1.1993
-2.16789
-0.306831
-0.98252
-0.46691
-0.536423
-0.336598
-0.275083
-0.151116
-0.063585
0.0456884
0.133238
0.257268
0.318875
0.518962
0.449736
0.96598
0.290305
2.15164
-1.2178
6.29565
-8.34301
21.4439
-32.9778
49.2356
-46.9218
29.3865
-19.6203
7.27431
-5.9191
0.932768
-2.10593
-0.391099
-0.987929
-0.501001
-0.549808
-0.352841
-0.283867
-0.157418
-0.0652941
0.0473073
0.139453
0.26597
0.335046
0.532282
0.48375
0.971232
0.374247
2.08908
-0.952128
5.89859
-7.30054
19.5927
-29.4215
46.8848
-44.7373
26.3342
-18.1473
6.38929
-5.60249
0.693974
-2.05902
-0.471082
-0.996908
-0.534979
-0.564236
-0.369441
-0.293015
-0.163923
-0.0670577
0.0489647
0.145852
0.275018
0.351553
0.546616
0.517606
0.979985
0.453819
2.0415
-0.714237
5.58093
-6.4166
18.1188
-26.3699
44.7
-42.7022
23.719
-16.9676
5.62083
-5.34759
0.475036
-2.0247
-0.547837
-1.0091
-0.568948
-0.579678
-0.386384
-0.302528
-0.170615
-0.0688825
0.0506662
0.152423
0.284412
0.36838
0.561932
0.551401
0.991888
0.530087
2.00646
-0.496221
5.32503
-5.64914
16.9383
-23.7553
42.6646
-40.8019
21.4798
-16.0108
4.93851
-5.14108
0.270332
-2.00125
-0.622192
-1.02424
-0.602986
-0.596097
-0.403656
-0.312402
-0.177481
-0.0707725
0.0524149
0.159148
0.294145
0.385509
0.578187
0.585214
1.00666
0.60389
1.98224
-0.29244
5.11756
-4.96776
15.9808
-21.5167
40.7641
-39.0234
19.5616
-15.2191
4.32125
-4.9727
0.0760596
-1.98738
-0.694786
-1.04206
-0.637149
-0.613444
-0.421236
-0.322624
-0.184506
-0.0727293
0.054212
0.166014
0.304206
0.402918
0.595332
0.6191
1.02407
0.675879
1.96758
-0.0990753
4.94828
-4.35138
15.1886
-19.599
38.9853
-37.3549
17.9156
-14.5461
3.75518
-4.83439
-0.110145
-1.98204
-0.766084
-1.06238
-0.671468
-0.631663
-0.4391
-0.333175
-0.191675
-0.0747526
0.0560566
0.173002
0.314572
0.420583
0.613311
0.653092
1.04392
0.746534
1.96144
0.0862481
4.80912
-3.7861
14.515
-17.9534
37.3164
-35.7857
16.4984
-13.9551
3.23175
-4.71958
-0.289524
-1.98426
-0.83639
-1.08497
-0.705945
-0.650685
-0.457217
-0.34403
-0.198968
-0.0768396
0.0579458
0.180095
0.325218
0.438471
0.632053
0.687198
1.06599
0.81617
1.96287
0.26478
4.69352
-3.26341
13.9235
-16.5365
35.7469
-34.3062
15.272
-13.4183
2.7462
-4.62271
-0.462494
-1.99304
-0.90584
-1.1096
-0.740554
-0.670424
-0.475543
-0.355153
-0.206364
-0.0789856
0.059875
0.18727
0.336109
0.456538
0.651478
0.721395
1.09008
0.884936
1.97087
0.436945
4.59592
-2.77854
13.3863
-15.3105
34.2671
-32.9077
14.2035
-12.9151
2.29633
-4.53906
-0.628816
-2.00732
-0.97441
-1.13601
-0.775229
-0.69078
-0.494024
-0.366501
-0.213839
-0.0811838
0.0618377
0.194504
0.347202
0.474733
0.671485
0.755624
1.11591
0.952816
1.98439
0.602503
4.51159
-2.32929
12.8827
-14.2423
32.8682
-31.5823
13.2646
-12.4313
1.88139
-4.4645
-0.787814
-2.02591
-1.04192
-1.16388
-0.809868
-0.711632
-0.512596
-0.378025
-0.221363
-0.0834252
0.0638259
0.201768
0.358448
0.492991
0.691958
0.789788
1.1432
1.01964
2.00225
0.760777
4.4364
-1.91493
12.3985
-13.3038
31.5425
-30.3231
12.4316
-11.9575
1.50134
-4.39542
-0.938536
-2.04756
-1.10804
-1.19286
-0.844323
-0.732838
-0.531177
-0.389663
-0.228904
-0.0856992
0.06583
0.209031
0.369788
0.511234
0.712759
0.823746
1.17157
1.08509
2.02319
0.910821
4.36672
-1.5354
11.9243
-12.4711
30.2829
-29.1236
11.6843
-11.4883
1.15627
-4.32867
-1.07996
-2.07093
-1.17233
-1.2225
-0.878405
-0.754232
-0.549672
-0.401348
-0.236424
-0.0879928
0.0678384
0.216257
0.381156
0.529371
0.733728
0.857318
1.20062
1.14872
2.04589
1.0516
4.29941
-1.19084
11.4548
-11.7243
29.083
-27.9781
11.0066
-11.0212
0.846082
-4.26161
-1.21098
-2.09473
-1.23427
-1.25235
-0.911885
-0.775627
-0.567973
-0.413
-0.243882
-0.0902914
0.0698385
0.223406
0.392476
0.547296
0.754683
0.89028
1.22987
1.21001
2.06905
1.18202
4.23183
-0.88112
10.9873
-11.0469
27.9371
-26.8816
10.3852
-10.556
0.57022
-4.1921
-1.33062
-2.11766
-1.29324
-1.28189
-0.944499
-0.796816
-0.585954
-0.424535
-0.251231
-0.0925786
0.0718161
0.230434
0.403664
0.564888
0.775421
0.922372
1.25883
1.26837
2.09137
1.30109
4.16182
-0.605712
10.5217
-10.426
26.8402
-25.8297
9.80966
-10.0937
0.32762
-4.11853
-1.43805
-2.1385
-1.34864
-1.31059
-0.975952
-0.817574
-0.603481
-0.435859
-0.258422
-0.0948367
0.0737556
0.237294
0.414631
0.582016
0.795721
0.953306
1.28696
1.32318
2.11163
1.40799
4.08777
-0.363552
10.059
-9.85087
25.7879
-24.8184
9.27192
-9.63625
0.116698
-4.03978
-1.53267
-2.15617
-1.39984
-1.3379
-1.00593
-0.837661
-0.620407
-0.446871
-0.265399
-0.0970464
0.0756407
0.243935
0.425281
0.598538
0.815351
0.982775
1.31372
1.37382
2.12874
1.5021
4.00855
-0.153063
9.6012
-9.31358
24.7763
-23.8444
8.76584
-9.18609
-0.0645767
-3.95519
-1.61409
-2.16971
-1.44628
-1.3633
-1.03412
-0.856832
-0.636578
-0.457467
-0.272108
-0.0991877
0.0774539
0.250304
0.435511
0.614305
0.834068
1.01046
1.33858
1.41972
2.14176
1.58303
3.92351
0.0277849
9.15062
-8.80796
23.802
-22.9049
8.28691
-8.74558
-0.218579
-3.86454
-1.68219
-2.17835
-1.48744
-1.38629
-1.06019
-0.87484
-0.651838
-0.46754
-0.27849
-0.10124
0.0791776
0.256345
0.445218
0.629163
0.85163
1.03605
1.36106
1.46036
2.1499
1.65068
3.83242
0.181361
8.70968
-8.32949
22.8621
-21.9972
7.83187
-8.31693
-0.347902
-3.768
-1.73712
-2.18153
-1.5229
-1.4064
-1.08385
-0.891443
-0.66603
-0.476983
-0.284486
-0.103181
0.0807936
0.262004
0.454299
0.642959
0.867797
1.05924
1.38068
1.49534
2.1526
1.70515
3.73544
0.310256
8.28059
-7.87491
21.9542
-21.1195
7.39848
-7.90202
-0.455229
-3.66602
-1.77922
-2.17885
-1.55234
-1.42324
-1.10481
-0.90641
-0.679001
-0.485688
-0.290038
-0.104992
0.0822843
0.267225
0.462651
0.655545
0.882344
1.07975
1.39705
1.52432
2.14947
1.74683
3.63302
0.417155
7.86524
-7.44197
21.0761
-20.2698
6.98522
-7.50232
-0.543225
-3.55928
-1.80908
-2.17011
-1.57555
-1.43649
-1.12284
-0.919531
-0.690607
-0.493557
-0.295091
-0.10665
0.0836322
0.271956
0.470176
0.666779
0.895062
1.09735
1.40985
1.54709
2.1403
1.77627
3.52584
0.504722
7.46509
-7.02916
20.2262
-19.4469
6.59111
-7.11883
-0.614441
-3.44863
-1.82744
-2.1553
-1.59245
-1.44588
-1.13772
-0.930619
-0.700718
-0.500494
-0.299592
-0.108139
0.084821
0.276147
0.476783
0.676533
0.905766
1.11183
1.41883
1.56357
2.12507
1.79421
3.41475
0.57551
7.08115
-6.63547
19.403
-18.6496
6.2155
-6.75215
-0.671242
-3.335
-1.83515
-2.13455
-1.60304
-1.45126
-1.1493
-0.939518
-0.709218
-0.506414
-0.303492
-0.109439
0.0858356
0.279751
0.482389
0.684695
0.914301
1.12302
1.42381
1.57377
2.1039
1.80153
3.30068
0.631885
6.71402
-6.26027
18.6055
-17.8769
5.85796
-6.40247
-0.71576
-3.21933
-1.83318
-2.10811
-1.60746
-1.45253
-1.15748
-0.946102
-0.716012
-0.511245
-0.306748
-0.110535
0.0866625
0.282729
0.486923
0.691171
0.920543
1.13085
1.42471
1.57781
2.07707
1.79917
3.18458
0.675982
6.36391
-5.90311
17.8326
-17.1282
5.51817
-6.06968
-0.749871
-3.10257
-1.82255
-2.07637
-1.60591
-1.44968
-1.1622
-0.950282
-0.721025
-0.514925
-0.309327
-0.111414
0.0872901
0.285048
0.490327
0.695888
0.924405
1.13523
1.42151
1.57591
2.04495
1.78814
3.06739
0.70968
6.0307
-5.56368
17.0836
-16.4027
5.19583
-5.75341
-0.775185
-2.98559
-1.80426
-2.03977
-1.5987
-1.44277
-1.16347
-0.952007
-0.724207
-0.517409
-0.311199
-0.112064
0.0877092
0.28668
0.492556
0.698795
0.925834
1.13619
1.41427
1.56836
2.00798
1.76947
2.94998
0.734594
5.71402
-5.24168
16.358
-15.7001
4.89062
-5.4531
-0.793064
-2.86916
-1.77932
-1.99882
-1.58619
-1.43194
-1.16134
-0.95126
-0.725531
-0.518666
-0.312344
-0.112478
0.0879125
0.287607
0.49358
0.699867
0.924814
1.13377
1.40312
1.55551
1.96667
1.74416
2.83313
0.752087
5.41333
-4.93679
15.6552
-15.02
4.60219
-5.16808
-0.80464
-2.75395
-1.74869
-1.95406
-1.56878
-1.41736
-1.1559
-0.948061
-0.724994
-0.518681
-0.312753
-0.11265
0.0878957
0.287819
0.493383
0.699099
0.921363
1.12805
1.38824
1.53779
1.92155
1.71318
2.71752
0.763294
5.12795
-4.64863
14.975
-14.3619
4.33007
-4.89761
-0.810841
-2.64054
-1.71329
-1.90603
-1.54692
-1.39926
-1.14728
-0.942461
-0.722615
-0.517454
-0.312421
-0.112579
0.0876567
0.287312
0.491967
0.696513
0.915533
1.11918
1.36987
1.51563
1.87319
1.67742
2.60371
0.769147
4.85713
-4.37676
14.3168
-13.7257
4.07377
-4.6409
-0.812429
-2.52938
-1.67393
-1.85529
-1.52108
-1.3779
-1.13565
-0.934543
-0.718438
-0.515002
-0.311357
-0.112266
0.0871962
0.286093
0.489346
0.692149
0.907405
1.10732
1.34825
1.4895
1.82211
1.63773
2.49217
0.77041
4.60011
-4.12068
13.6805
-13.111
3.8327
-4.3972
-0.810028
-2.42081
-1.63138
-1.80235
-1.49171
-1.35358
-1.12122
-0.924415
-0.712526
-0.511354
-0.309574
-0.111713
0.0865172
0.284176
0.48555
0.68607
0.897087
1.09268
1.32368
1.45986
1.76886
1.59485
2.38324
0.76771
4.35613
-3.8798
13.0657
-12.5175
3.60622
-4.16578
-0.804157
-2.3151
-1.58631
-1.74771
-1.4593
-1.32661
-1.1042
-0.912211
-0.704961
-0.506555
-0.307095
-0.110929
0.085625
0.281581
0.480621
0.678355
0.884708
1.07546
1.29648
1.42718
1.71392
1.54947
2.2772
0.761566
4.12445
-3.65347
12.4722
-11.945
3.39364
-3.94596
-0.795252
-2.21244
-1.53931
-1.69184
-1.42429
-1.29731
-1.08484
-0.898079
-0.695839
-0.500661
-0.30395
-0.109923
0.0845274
0.278338
0.474613
0.6691
0.870417
1.05591
1.26695
1.39192
1.65775
1.50218
2.17422
0.752419
3.9044
-3.44101
11.8997
-11.3931
3.19424
-3.73711
-0.783695
-2.11294
-1.4909
-1.63515
-1.38712
-1.26598
-1.06337
-0.882185
-0.685272
-0.493737
-0.300177
-0.108705
0.083234
0.274481
0.467591
0.658414
0.854377
1.03426
1.23541
1.35452
1.60079
1.45351
2.07443
0.740649
3.69535
-3.2417
11.3478
-10.8614
3.00728
-3.53863
-0.769825
-2.01668
-1.44156
-1.57802
-1.34821
-1.23296
-1.04006
-0.864704
-0.673381
-0.48586
-0.295817
-0.107291
0.0817562
0.27005
0.459628
0.646416
0.836762
1.01079
1.20219
1.31538
1.5434
1.40391
1.97791
0.726597
3.49671
-3.0548
10.8161
-10.3496
2.83202
-3.35002
-0.753954
-1.9237
-1.39166
-1.5208
-1.30795
-1.19855
-1.01515
-0.845821
-0.660297
-0.477113
-0.290917
-0.105696
0.0801069
0.265089
0.450804
0.633235
0.817754
0.985725
1.16759
1.27491
1.48594
1.35379
1.8847
0.710576
3.30796
-2.87956
10.3043
-9.85717
2.6677
-3.17079
-0.736374
-1.83401
-1.34156
-1.4638
-1.26669
-1.16305
-0.988903
-0.825723
-0.646157
-0.467583
-0.28553
-0.103936
0.0783004
0.259647
0.441205
0.619003
0.797539
0.959334
1.13191
1.23345
1.42872
1.30349
1.7948
0.692879
3.12862
-2.71524
9.81196
-9.38365
2.51361
-3.0005
-0.717366
-1.7476
-1.29156
-1.40728
-1.22476
-1.12674
-0.961565
-0.804597
-0.631098
-0.457365
-0.279708
-0.102031
0.076352
0.253774
0.430922
0.60386
0.776302
0.931858
1.09544
1.19134
1.37199
1.25331
1.70821
0.673786
2.95825
-2.56111
9.33853
-8.92853
2.36903
-2.83875
-0.697195
-1.66445
-1.24192
-1.35148
-1.18247
-1.08989
-0.933376
-0.782632
-0.615265
-0.446555
-0.273509
-0.0999992
0.0742777
0.247526
0.420047
0.587943
0.754229
0.903537
1.05843
1.14888
1.31601
1.20352
1.62491
0.653563
2.79645
-2.41646
8.88352
-8.49124
2.23326
-2.68515
-0.676121
-1.58453
-1.19286
-1.29661
-1.1401
-1.05275
-0.904565
-0.760012
-0.598798
-0.435249
-0.266991
-0.0978611
0.0720943
0.240955
0.408676
0.571392
0.731502
0.874599
1.02114
1.10635
1.26098
1.15434
1.54487
0.632468
2.64283
-2.28058
8.44635
-8.07119
2.10564
-2.53935
-0.654391
-1.50783
-1.14461
-1.24286
-1.0979
-1.01555
-0.875352
-0.736915
-0.581837
-0.423546
-0.260211
-0.0956365
0.0698188
0.234118
0.396904
0.554345
0.708299
0.845262
0.983802
1.06401
1.20708
1.10598
1.46808
0.610747
2.49704
-2.15283
8.02645
-7.66775
1.98553
-2.40101
-0.632239
-1.4343
-1.09732
-1.19039
-1.0561
-0.978521
-0.845944
-0.713515
-0.564519
-0.411543
-0.25323
-0.0933458
0.0674683
0.227071
0.384824
0.536937
0.684792
0.815734
0.946637
1.02208
1.15449
1.05862
1.39449
0.588637
2.35874
-2.03257
7.62318
-7.28028
1.87234
-2.2698
-0.60989
-1.36392
-1.05118
-1.13934
-1.0149
-0.941853
-0.816537
-0.689978
-0.54698
-0.399335
-0.246104
-0.0910091
0.0650601
0.219869
0.37253
0.5193
0.661145
0.786208
0.909843
0.980771
1.10334
1.01243
1.32407
0.566359
2.22759
-1.91918
7.23589
-6.90809
1.76548
-2.14541
-0.587553
-1.29666
-1.00631
-1.08985
-0.974502
-0.905735
-0.787316
-0.666462
-0.529346
-0.387015
-0.238891
-0.0886461
0.0626113
0.212567
0.360113
0.501561
0.637514
0.756867
0.873605
0.94027
1.05377
0.967534
1.25681
0.544123
2.10329
-1.81211
6.8639
-6.55051
1.66443
-2.02752
-0.565423
-1.23248
-0.962859
-1.04203
-0.935068
-0.870337
-0.758451
-0.643117
-0.511743
-0.374674
-0.231647
-0.0862762
0.0601388
0.205217
0.347662
0.483841
0.614048
0.727883
0.838094
0.900747
1.00588
0.924076
1.19265
0.522121
1.98552
-1.71081
6.50654
-6.20683
1.56865
-1.91585
-0.54368
-1.17136
-0.920932
-0.995983
-0.896755
-0.835816
-0.730102
-0.620085
-0.494288
-0.362399
-0.224425
-0.0839181
0.057659
0.197872
0.335261
0.466258
0.590889
0.699414
0.803465
0.862357
0.959781
0.882169
1.13158
0.500533
1.87398
-1.61476
6.1631
-5.87636
1.47767
-1.81009
-0.52249
-1.11327
-0.88064
-0.951795
-0.859705
-0.802318
-0.702419
-0.597501
-0.477093
-0.350274
-0.217277
-0.0815897
0.0551881
0.190581
0.322992
0.448923
0.568168
0.671608
0.769863
0.82524
0.915562
0.841917
1.07356
0.479523
1.76838
-1.52349
5.83287
-5.55838
1.39105
-1.70997
-0.502004
-1.05818
-0.842077
-0.909552
-0.824045
-0.769975
-0.675541
-0.575489
-0.460267
-0.338378
-0.210253
-0.0793083
0.0527416
0.183393
0.310934
0.431941
0.54601
0.644604
0.73742
0.789523
0.873303
0.803414
1.01856
0.459241
1.66845
-1.43655
5.51516
-5.2522
1.30834
-1.61522
-0.482358
-1.00606
-0.805331
-0.869329
-0.789892
-0.73891
-0.649595
-0.554167
-0.443908
-0.326786
-0.2034
-0.0770902
0.0503347
0.176353
0.299162
0.415411
0.524533
0.618528
0.706257
0.755323
0.833079
0.766748
0.966553
0.439823
1.5739
-1.3535
5.20926
-4.95716
1.22916
-1.52558
-0.46368
-0.956885
-0.770483
-0.831195
-0.757356
-0.709236
-0.624702
-0.533647
-0.428113
-0.315572
-0.196764
-0.074951
0.0479819
0.169507
0.287746
0.399429
0.503846
0.5935
0.676487
0.722746
0.794958
0.731995
0.917511
0.421392
1.48447
-1.27396
4.9145
-4.67257
1.15313
-1.4408
-0.446082
-0.91063
-0.737606
-0.795214
-0.726535
-0.681058
-0.600974
-0.514031
-0.412971
-0.304802
-0.190386
-0.0729052
0.0456973
0.162896
0.276754
0.384083
0.484052
0.569631
0.648214
0.691892
0.759001
0.699231
0.871407
0.404062
1.39993
-1.19756
4.63022
-4.39781
1.07991
-1.36066
-0.429671
-0.867275
-0.706772
-0.761448
-0.697523
-0.654476
-0.578514
-0.495416
-0.398566
-0.294542
-0.184308
-0.0709667
0.0434944
0.156561
0.266249
0.369456
0.465248
0.547025
0.621535
0.662851
0.72527
0.668522
0.82822
0.387937
1.32004
-1.12394
4.35578
-4.13228
1.00918
-1.28494
-0.414545
-0.826804
-0.678047
-0.729955
-0.670407
-0.62958
-0.557421
-0.477895
-0.384977
-0.28485
-0.178567
-0.0691481
0.0413861
0.150538
0.256293
0.355629
0.447524
0.525778
0.596543
0.635712
0.69382
0.639935
0.787932
0.373113
1.24459
-1.0528
4.09057
-3.87543
0.940656
-1.21345
-0.400798
-0.789208
-0.651497
-0.700792
-0.645272
-0.606459
-0.537786
-0.461552
-0.372279
-0.275786
-0.173199
-0.0674617
0.0393849
0.144865
0.246943
0.342675
0.430967
0.505983
0.573323
0.610556
0.664709
0.613534
0.750532
0.359683
1.17338
-0.983844
3.83406
-3.62674
0.874062
-1.14602
-0.38852
-0.754485
-0.627189
-0.674018
-0.622199
-0.585196
-0.519698
-0.446469
-0.360542
-0.267401
-0.168239
-0.0659185
0.0375025
0.139576
0.238252
0.330666
0.415657
0.487725
0.551959
0.587463
0.637992
0.589384
0.716017
0.347734
1.10625
-0.916806
3.58572
-3.38578
0.809163
-1.08252
-0.377801
-0.722643
-0.605192
-0.649692
-0.601266
-0.565872
-0.503239
-0.432723
-0.349833
-0.259747
-0.163716
-0.064529
0.0357504
0.134703
0.230272
0.319667
0.401671
0.471089
0.532529
0.566512
0.613727
0.56755
0.684391
0.337357
1.04305
-0.85145
3.34511
-3.15217
0.745744
-1.02283
-0.368733
-0.6937
-0.585575
-0.627878
-0.582553
-0.548565
-0.488488
-0.420387
-0.340215
-0.252872
-0.159662
-0.0633028
0.0341396
0.130278
0.223051
0.309744
0.389082
0.456153
0.515112
0.547779
0.591977
0.548104
0.655674
0.32864
0.983674
-0.787562
3.11187
-2.92564
0.683621
-0.966879
-0.36141
-0.667689
-0.568417
-0.608642
-0.566138
-0.533352
-0.475523
-0.40953
-0.331746
-0.246821
-0.156104
-0.062249
0.0326805
0.126329
0.216637
0.300954
0.37796
0.442993
0.499785
0.531342
0.572806
0.531119
0.629893
0.321676
0.928048
-0.724959
2.88572
-2.706
0.622639
-0.91463
-0.355934
-0.644655
-0.553799
-0.592054
-0.552102
-0.52031
-0.464418
-0.400219
-0.324483
-0.241635
-0.153069
-0.0613757
0.031383
0.122884
0.211071
0.293357
0.368373
0.431685
0.486622
0.517281
0.556283
0.516677
0.607095
0.316564
0.876129
-0.663487
2.66646
-2.49319
0.562674
-0.866084
-0.35241
-0.624658
-0.541812
-0.578192
-0.540527
-0.509515
-0.455245
-0.392518
-0.31848
-0.237355
-0.15058
-0.0606906
0.0302566
0.119969
0.206396
0.287005
0.360383
0.422299
0.475699
0.505676
0.542484
0.504865
0.587337
0.313411
0.827922
-0.603024
2.45404
-2.28729
0.503635
-0.821291
-0.350958
-0.607778
-0.532554
-0.567138
-0.531496
-0.501042
-0.448074
-0.386488
-0.313787
-0.234017
-0.14866
-0.0602007
0.0293102
0.117609
0.20265
0.281951
0.354054
0.414907
0.467091
0.496611
0.53149
0.495781
0.570697
0.312332
0.783474
-0.54348
2.24855
-2.08855
0.445472
-0.78035
-0.351705
-0.59411
-0.526131