/*--------------------------------*- C++ -*----------------------------------*\
| =========                 |                                                 |
| \\      /  F ield         | OpenFOAM: The Open Source CFD Toolbox           |
|  \\    /   O peration     | Version:  5.x                                   |
|   \\  /    A nd           | Web:      www.OpenFOAM.org                      |
|    \\/     M anipulation  |                                                 |
\*---------------------------------------------------------------------------*/
FoamFile
{
    version     2.0;
    format      ascii;
    class       surfaceScalarField;
    location    "0.01";
    object      phi;
}
// * * * * * * * * * * * * * * * * * * * * * * * * * * * * * * * * * * * * * //

dimensions      [0 3 -1 0 0 0 0];

internalField   nonuniform List<scalar> 
14230
(
-4.41914e-13
-5.07397e-15
-4.32707e-13
-9.20979e-15
-4.09538e-13
-2.31715e-14
-3.9551e-13
-1.40311e-14
-3.38258e-13
-5.72556e-14
-3.61779e-13
2.35188e-14
-1.87221e-13
-1.74561e-13
-4.33271e-13
2.46049e-13
2.11345e-13
-6.44617e-13
-9.22294e-13
1.13364e-12
1.26323e-12
-2.18553e-12
-2.04577e-12
3.309e-12
1.91246e-12
-3.95823e-12
-7.34178e-13
2.64664e-12
-1.41287e-12
6.78692e-13
-1.30474e-12
-1.68503e-14
-1.27063e-12
-4.33183e-14
-1.21215e-12
-8.16614e-14
-1.14042e-12
-8.57669e-14
-1.02974e-12
-1.67932e-13
-9.59074e-13
-4.71536e-14
-7.34874e-13
-3.98764e-13
-8.42586e-13
3.53759e-13
-1.72647e-13
-1.31456e-12
-1.15859e-12
2.11958e-12
1.15948e-12
-4.5036e-12
-2.52206e-12
6.99054e-12
2.62311e-12
-9.10339e-12
-1.00469e-12
6.27444e-12
-3.76821e-12
1.35065e-12
-2.12711e-12
-3.52677e-14
-2.06872e-12
-1.01718e-13
-1.9767e-12
-1.73685e-13
-1.84722e-12
-2.15251e-13
-1.6907e-12
-3.2445e-13
-1.51237e-12
-2.2549e-13
-1.28412e-12
-6.27013e-13
-1.14863e-12
2.18262e-13
-7.06826e-13
-1.75636e-12
-1.00496e-12
2.41771e-12
3.4732e-13
-5.85588e-12
-1.83419e-12
9.17205e-12
2.33027e-12
-1.32679e-11
-8.8869e-13
9.4934e-12
-6.53066e-12
1.87376e-12
-2.90548e-12
-6.08276e-14
-2.82466e-12
-1.82545e-13
-2.6976e-12
-3.00746e-13
-2.51717e-12
-3.95684e-13
-2.3053e-12
-5.36332e-13
-2.04459e-12
-4.86196e-13
-1.76817e-12
-9.03443e-13
-1.48169e-12
-6.82131e-14
-1.10455e-12
-2.1335e-12
-1.00785e-12
2.321e-12
-2.02645e-13
-6.66108e-12
-1.22076e-12
1.01902e-11
2.03567e-12
-1.65243e-11
-7.20541e-13
1.22496e-11
-9.76791e-12
2.5167e-12
-3.63689e-12
-9.36055e-14
-3.53481e-12
-2.84627e-13
-3.37287e-12
-4.62685e-13
-3.145e-12
-6.23559e-13
-2.87553e-12
-8.0581e-13
-2.54339e-12
-8.18342e-13
-2.20309e-12
-1.24374e-12
-1.80542e-12
-4.65885e-13
-1.42269e-12
-2.51624e-12
-1.07568e-12
1.974e-12
-5.51574e-13
-7.18518e-12
-6.81915e-13
1.03205e-11
1.7254e-12
-1.89316e-11
-4.48402e-13
1.44234e-11
-1.34943e-11
3.27804e-12
-4.31796e-12
-1.33477e-13
-4.19558e-12
-4.07005e-13
-3.99967e-12
-6.58602e-13
-3.72678e-12
-8.96453e-13
-3.40029e-12
-1.1323e-12
-3.0026e-12
-1.21604e-12
-2.59337e-12
-1.65298e-12
-2.10457e-12
-9.54686e-13
-1.68248e-12
-2.93833e-12
-1.15805e-12
1.44957e-12
-7.44142e-13
-7.59909e-12
-2.32271e-13
9.80864e-12
1.43007e-12
-2.05939e-11
-5.55286e-14
1.5909e-11
-1.77163e-11
4.16642e-12
-4.945e-12
-1.80203e-13
-4.80322e-12
-5.48784e-13
-4.57463e-12
-8.87194e-13
-4.25877e-12
-1.21231e-12
-3.87715e-12
-1.51393e-12
-3.41778e-12
-1.67541e-12
-2.9392e-12
-2.13155e-12
-2.37044e-12
-1.52345e-12
-1.89097e-12
-3.4178e-12
-1.22621e-12
7.8481e-13
-8.19564e-13
-8.00574e-12
1.23391e-13
8.86569e-12
1.18643e-12
-2.1657e-11
4.71669e-13
1.66238e-11
-2.24335e-11
5.18885e-12
-5.51398e-12
-2.33475e-13
-5.35371e-12
-7.09054e-13
-5.09399e-12
-1.14692e-12
-4.73716e-12
-1.56914e-12
-4.3029e-12
-1.94819e-12
-3.78499e-12
-2.19333e-12
-3.2388e-12
-2.67775e-12
-2.59669e-12
-2.16556e-12
-2.04964e-12
-3.96485e-12
-1.26459e-12
-2.46859e-16
-8.13289e-13
-8.45703e-12
3.96317e-13
7.65608e-12
1.02896e-12
-2.22896e-11
1.14672e-12
1.6506e-11
-2.76365e-11
6.34977e-12
-6.02056e-12
-2.92941e-13
-5.84276e-12
-8.86856e-13
-5.5536e-12
-1.43608e-12
-5.1579e-12
-1.96485e-12
-4.67385e-12
-2.43224e-12
-4.10033e-12
-2.76685e-12
-3.48921e-12
-3.28888e-12
-2.77813e-12
-2.87665e-12
-2.15798e-12
-4.58499e-12
-1.26674e-12
-8.91492e-13
-7.52591e-13
-8.97118e-12
6.09901e-13
6.29359e-12
9.90209e-13
-2.26699e-11
1.98098e-12
1.55152e-11
-3.33074e-11
7.65183e-12
-6.46006e-12
-3.58219e-13
-6.26576e-12
-1.08116e-12
-5.949e-12
-1.75285e-12
-5.51664e-12
-2.39721e-12
-4.98585e-12
-2.96303e-12
-4.35973e-12
-3.39297e-12
-3.68679e-12
-3.96182e-12
-2.91023e-12
-3.6532e-12
-2.21509e-12
-5.28014e-12
-1.23132e-12
-1.87526e-12
-6.53974e-13
-9.54852e-12
7.95842e-13
4.84378e-12
1.1001e-12
-2.29742e-11
2.98306e-12
1.36323e-11
-3.94202e-11
9.09591e-12
-6.82746e-12
-4.28903e-13
-6.61775e-12
-1.29087e-12
-6.2753e-12
-2.0953e-12
-5.80868e-12
-2.86384e-12
-5.23433e-12
-3.53738e-12
-4.55877e-12
-4.06853e-12
-3.82743e-12
-4.69317e-12
-2.9889e-12
-4.49173e-12
-2.22007e-12
-6.04896e-12
-1.15823e-12
-2.9371e-12
-5.22737e-13
-1.0184e-11
9.91084e-13
3.32996e-12
1.38503e-12
-2.33681e-11
4.15885e-12
1.08585e-11
-4.59427e-11
1.06813e-11
-7.11735e-12
-5.04569e-13
-6.8934e-12
-1.51483e-12
-6.52729e-12
-2.46142e-12
-6.02894e-12
-3.36219e-12
-5.41433e-12
-4.152e-12
-4.69268e-12
-4.79018e-12
-3.90665e-12
-5.4792e-12
-3.01011e-12
-5.38828e-12
-2.17162e-12
-6.88745e-12
-1.04567e-12
-4.06305e-12
-3.53744e-13
-1.08759e-11
1.23506e-12
1.74115e-12
1.86716e-12
-2.40002e-11
5.51157e-12
7.21406e-12
-5.28368e-11
1.24057e-11
-7.32399e-12
-5.84782e-13
-7.08701e-12
-1.75181e-12
-6.69931e-12
-2.84912e-12
-6.17188e-12
-3.88962e-12
-5.52041e-12
-4.80347e-12
-4.75622e-12
-5.55436e-12
-3.91955e-12
-6.31588e-12
-2.96957e-12
-6.33826e-12
-2.06706e-12
-7.78996e-12
-8.88226e-13
-5.24188e-12
-1.32944e-13
-1.16312e-11
1.56736e-12
4.08411e-14
2.56393e-12
-2.49968e-11
7.04188e-12
2.73612e-12
-6.00606e-11
1.42657e-11
-7.44123e-12
-6.69097e-13
-7.19247e-12
-2.00057e-12
-6.7853e-12
-3.2563e-12
-6.23153e-12
-4.44339e-12
-5.54666e-12
-5.48834e-12
-4.74365e-12
-6.35738e-12
-3.86063e-12
-7.1989e-12
-2.86219e-12
-7.33671e-12
-1.90153e-12
-8.75061e-12
-6.75836e-13
-6.46757e-12
1.60625e-13
-1.24677e-11
2.02561e-12
-1.82415e-12
3.48798e-12
-2.64592e-11
8.74805e-12
-2.52396e-12
-6.7569e-11
1.62565e-11
-7.46252e-12
-7.5707e-13
-7.20326e-12
-2.25983e-12
-6.77876e-12
-3.6808e-12
-6.20143e-12
-5.02072e-12
-5.48663e-12
-6.20314e-12
-4.64858e-12
-7.19543e-12
-3.72361e-12
-8.12386e-12
-2.68153e-12
-8.37879e-12
-1.66721e-12
-9.76493e-12
-3.9366e-13
-7.74112e-12
5.52629e-13
-1.3414e-11
2.64388e-12
-3.91539e-12
4.64714e-12
-2.84624e-11
1.06263e-11
-8.50314e-12
-7.53153e-11
1.83726e-11
-7.38095e-12
-8.48262e-13
-7.11245e-12
-2.52833e-12
-6.67273e-12
-4.12052e-12
-6.07459e-12
-5.61887e-12
-5.33326e-12
-6.94447e-12
-4.46388e-12
-8.06482e-12
-3.50113e-12
-9.08661e-12
-2.41936e-12
-9.46056e-12
-1.353e-12
-1.08313e-11
-2.26831e-14
-9.07144e-12
1.07128e-12
-1.45079e-11
3.45147e-12
-6.29558e-12
6.04461e-12
-3.10556e-11
1.26711e-11
-1.51297e-11
-8.32522e-11
2.0608e-11
-7.18918e-12
-9.4225e-13
-6.91269e-12
-2.80482e-12
-6.45978e-12
-4.57342e-12
-5.84348e-12
-6.23517e-12
-5.07884e-12
-7.70912e-12
-4.18155e-12
-8.96211e-12
-3.18455e-12
-1.00836e-11
-2.06536e-12
-1.05797e-11
-9.44471e-13
-1.19522e-11
4.59534e-13
-1.04754e-11
1.74503e-12
-1.57934e-11
4.47217e-12
-9.02272e-12
7.6794e-12
-3.42628e-11
1.48755e-11
-2.23258e-11
-9.13327e-11
2.29561e-11
-6.87951e-12
-1.03864e-12
-6.59619e-12
-3.08814e-12
-6.132e-12
-5.03761e-12
-5.49999e-12
-6.86719e-12
-4.7149e-12
-8.4942e-12
-3.79259e-12
-9.88442e-12
-2.76374e-12
-1.11125e-11
-1.60695e-12
-1.17365e-11
-4.24276e-13
-1.31349e-11
1.07747e-12
-1.19772e-11
2.60107e-12
-1.7317e-11
5.72384e-12
-1.21455e-11
9.54685e-12
-3.80858e-11
1.72316e-11
-3.00105e-11
-9.95114e-11
2.54102e-11
-6.44385e-12
-1.13706e-12
-6.15476e-12
-3.37723e-12
-5.68099e-12
-5.51138e-12
-5.0354e-12
-7.51278e-12
-4.23225e-12
-9.29736e-12
-3.28694e-12
-1.08297e-11
-2.22706e-12
-1.21723e-11
-1.02944e-12
-1.29342e-11
2.27269e-13
-1.43916e-11
1.85636e-12
-1.36063e-11
3.6637e-12
-1.91244e-11
7.2184e-12
-1.57002e-11
1.16392e-11
-4.25066e-11
1.97306e-11
-3.81019e-11
-1.07744e-10
2.79637e-11
-5.87376e-12
-1.23721e-12
-5.57981e-12
-3.67118e-12
-5.0979e-12
-5.9933e-12
-4.44045e-12
-8.17023e-12
-3.62089e-12
-1.01169e-11
-2.65348e-12
-1.17971e-11
-1.56138e-12
-1.32644e-11
-3.16321e-13
-1.41792e-11
1.03137e-12
-1.57393e-11
2.82069e-12
-1.53956e-11
4.9533e-12
-2.1257e-11
8.96203e-12
-1.97089e-11
1.39462e-11
-4.74908e-11
2.23636e-11
-4.65193e-11
-1.15991e-10
3.061e-11
-5.16049e-12
-1.33884e-12
-4.86241e-12
-3.96926e-12
-4.37342e-12
-6.48228e-12
-3.70526e-12
-8.83839e-12
-2.87011e-12
-1.09521e-11
-1.88008e-12
-1.27872e-11
-7.52286e-13
-1.43922e-11
5.50195e-13
-1.54817e-11
2.00945e-12
-1.71985e-11
3.99305e-12
-1.73792e-11
6.48558e-12
-2.37495e-11
1.09557e-11
-2.41791e-11
1.6456e-11
-5.29911e-11
2.51217e-11
-5.5185e-11
-1.24212e-10
3.3343e-11
-4.295e-12
-1.44178e-12
-3.99328e-12
-4.27099e-12
-3.49788e-12
-6.97768e-12
-2.8195e-12
-9.51677e-12
-1.9685e-12
-1.18031e-11
-9.5374e-13
-1.38019e-11
2.15617e-13
-1.55616e-11
1.58863e-12
-1.68547e-11
3.18262e-12
-1.87925e-11
5.39321e-12
-1.95898e-11
8.27133e-12
-2.66276e-11
1.3196e-11
-2.91037e-11
1.91555e-11
-5.89507e-11
2.79961e-11
-6.40255e-11
-1.32373e-10
3.61571e-11
-3.26802e-12
-1.54593e-12
-2.96288e-12
-4.57612e-12
-2.46125e-12
-7.47931e-12
-1.77237e-12
-1.02057e-11
-9.04108e-13
-1.26713e-11
1.39191e-13
-1.48452e-11
1.35832e-12
-1.67807e-11
2.81749e-12
-1.83139e-11
4.57046e-12
-2.05455e-11
7.03727e-12
-2.20566e-11
1.03163e-11
-2.99067e-11
1.56754e-11
-3.44628e-11
2.20311e-11
-6.53064e-11
3.09784e-11
-7.29728e-11
-1.40442e-10
3.90468e-11
-2.07011e-12
-1.65133e-12
-1.76148e-12
-4.88476e-12
-1.25324e-12
-7.98755e-12
-5.52761e-13
-1.09061e-11
3.35386e-13
-1.35595e-11
1.41272e-12
-1.59226e-11
2.69188e-12
-1.80599e-11
4.25455e-12
-1.98766e-11
6.1903e-12
-2.24812e-11
8.93726e-12
-2.48036e-11
1.26217e-11
-3.35911e-11
1.83839e-11
-4.0225e-11
2.50692e-11
-7.19917e-11
3.4061e-11
-8.19646e-11
-1.48388e-10
4.20076e-11
-6.91751e-13
-1.75807e-12
-3.7923e-13
-5.19728e-12
1.36547e-13
-8.50333e-12
8.50609e-13
-1.16202e-11
1.76249e-12
-1.44714e-11
2.88091e-12
-1.7041e-11
4.23198e-12
-1.94109e-11
5.91626e-12
-2.15608e-11
8.0566e-12
-2.46216e-11
1.11009e-11
-2.78479e-11
1.51844e-11
-3.76745e-11
2.13091e-11
-4.63498e-11
2.82567e-11
-7.89393e-11
3.72369e-11
-9.09447e-11
-1.56187e-10
4.50352e-11
8.766e-13
-1.86639e-12
1.19374e-12
-5.51442e-12
1.71857e-12
-9.02816e-12
2.44904e-12
-1.23507e-11
3.38962e-12
-1.5412e-11
4.55749e-12
-1.82089e-11
5.9934e-12
-2.08469e-11
7.81706e-12
-2.33845e-11
1.01805e-11
-2.6985e-11
1.35317e-11
-3.11991e-11
1.79977e-11
-4.21405e-11
2.44375e-11
-5.27896e-11
3.15812e-11
-8.6083e-11
4.04997e-11
-9.98632e-11
-1.63813e-10
4.81259e-11
2.6444e-12
-1.97661e-12
2.96721e-12
-5.83723e-12
3.50317e-12
-9.56412e-12
4.25365e-12
-1.31011e-11
5.2289e-12
-1.63872e-11
6.45552e-12
-1.94355e-11
7.98956e-12
-2.23809e-11
9.96905e-12
-2.5364e-11
1.25696e-11
-2.95855e-11
1.62293e-11
-3.48589e-11
2.10522e-11
-4.69634e-11
2.77549e-11
-5.94923e-11
3.50312e-11
-9.33592e-11
4.3844e-11
-1.08676e-10
-1.71245e-10
5.12765e-11
4.62092e-12
-2.08917e-12
4.95077e-12
-6.16708e-12
5.50043e-12
-1.01138e-11
6.27523e-12
-1.38759e-11
7.29184e-12
-1.74038e-11
8.58703e-12
-2.07307e-11
1.02321e-11
-2.4026e-11
1.23816e-11
-2.75134e-11
1.5228e-11
-3.2432e-11
1.91898e-11
-3.88206e-11
2.43365e-11
-5.21101e-11
3.12471e-11
-6.64029e-11
3.85965e-11
-1.00709e-10
4.72649e-11
-1.17344e-10
-1.78465e-10
5.44841e-11
6.81517e-12
-2.20458e-12
7.15367e-12
-6.50558e-12
7.72004e-12
-1.06801e-11
8.52396e-12
-1.46799e-11
9.5891e-12
-1.8469e-11
1.09627e-11
-2.21043e-11
1.27307e-11
-2.5794e-11
1.50611e-11
-2.98439e-11
1.81565e-11
-3.55273e-11
2.24062e-11
-4.30703e-11
2.78374e-11
-5.75413e-11
3.49005e-11
-7.3466e-11
4.2268e-11
-1.08076e-10
5.07582e-11
-1.25835e-10
-1.85452e-10
5.77461e-11
9.23573e-12
-2.32342e-12
9.58474e-12
-6.85459e-12
1.01711e-11
-1.12665e-11
1.10093e-11
-1.55181e-11
1.21303e-11
-1.95899e-11
1.35917e-11
-2.35657e-11
1.54927e-11
-2.7695e-11
1.80112e-11
-3.23624e-11
2.13525e-11
-3.88686e-11
2.58693e-11
-4.75871e-11
3.15416e-11
-6.32136e-11
3.87023e-11
-8.06267e-11
4.60379e-11
-1.15412e-10
5.43204e-11
-1.34117e-10
-1.92192e-10
6.10604e-11
1.18907e-11
-2.44635e-12
1.22522e-11
-7.21608e-12
1.28622e-11
-1.18765e-11
1.37399e-11
-1.63958e-11
1.49237e-11
-2.07737e-11
1.64813e-11
-2.51232e-11
1.8523e-11
-2.97368e-11
2.12327e-11
-3.50721e-11
2.4811e-11
-4.24468e-11
2.95682e-11
-5.23444e-11
3.54351e-11
-6.90804e-11
4.26406e-11
-8.78322e-11
4.98993e-11
-1.2267e-10
5.79483e-11
-1.42166e-10
-1.98669e-10
6.4425e-11
1.47877e-11
-2.57403e-12
1.51637e-11
-7.59211e-12
1.58007e-11
-1.25135e-11
1.67231e-11
-1.73182e-11
1.79763e-11
-2.20269e-11
1.96369e-11
-2.67838e-11
2.18244e-11
-3.19242e-11
2.47237e-11
-3.79715e-11
2.85247e-11
-4.62478e-11
3.34909e-11
-5.73106e-11
3.95045e-11
-7.5094e-11
4.67049e-11
-9.50326e-11
5.38465e-11
-1.29812e-10
6.16391e-11
-1.49959e-10
-2.04868e-10
6.7838e-11
1.79334e-11
-2.70712e-12
1.8326e-11
-7.98472e-12
1.89935e-11
-1.31811e-11
1.99653e-11
-1.82899e-11
2.12934e-11
-2.3355e-11
2.30621e-11
-2.85526e-11
2.53971e-11
-3.42592e-11
2.84802e-11
-4.10546e-11
3.24845e-11
-5.02521e-11
3.76245e-11
-6.24507e-11
4.37371e-11
-8.12065e-11
5.08858e-11
-1.02181e-10
5.78746e-11
-1.36801e-10
6.53904e-11
-1.57474e-10
-2.10775e-10
7.12976e-11
2.13339e-11
-2.84625e-12
2.1745e-11
-8.39582e-12
2.24462e-11
-1.38823e-11
2.34714e-11
-1.93151e-11
2.48787e-11
-2.47623e-11
2.67585e-11
-3.04324e-11
2.92394e-11
-3.67401e-11
3.24959e-11
-4.43111e-11
3.668e-11
-5.44361e-11
4.19564e-11
-6.77271e-11
4.81208e-11
-8.73709e-11
5.51751e-11
-1.09236e-10
6.19793e-11
-1.43605e-10
6.91999e-11
-1.64695e-10
-2.16377e-10
7.48021e-11
2.49944e-11
-2.99199e-12
2.54257e-11
-8.82712e-12
2.61632e-11
-1.46198e-11
2.72451e-11
-2.03969e-11
2.87344e-11
-2.62517e-11
3.07258e-11
-3.24238e-11
3.33477e-11
-3.9362e-11
3.67634e-11
-4.77268e-11
4.11001e-11
-5.87728e-11
4.64739e-11
-7.31009e-11
5.26449e-11
-9.35419e-11
5.95657e-11
-1.16156e-10
6.61569e-11
-1.50196e-10
7.30655e-11
-1.71604e-10
-2.21662e-10
7.83499e-11
2.89191e-11
-3.14481e-12
2.93721e-11
-9.28003e-12
3.0148e-11
-1.53958e-11
3.12887e-11
-2.15376e-11
3.28612e-11
-2.78241e-11
3.4962e-11
-3.45246e-11
3.77166e-11
-4.21166e-11
4.12736e-11
-5.12838e-11
4.57332e-11
-6.32324e-11
5.11649e-11
-7.85325e-11
5.72994e-11
-9.96765e-11
6.40514e-11
-1.22908e-10
7.04043e-11
-1.56549e-10
7.69851e-11
-1.78184e-10
-2.26616e-10
8.19394e-11
3.31115e-11
-3.30506e-12
3.3587e-11
-9.75556e-12
3.44028e-11
-1.62116e-11
3.56032e-11
-2.27381e-11
3.72579e-11
-2.94788e-11
3.94635e-11
-3.67301e-11
4.23394e-11
-4.49925e-11
4.60168e-11
-5.49612e-11
5.05676e-11
-6.77832e-11
5.60179e-11
-8.39829e-11
6.20756e-11
-1.05734e-10
6.86268e-11
-1.2946e-10
7.47185e-11
-1.62641e-10
8.09567e-11
-1.84423e-10
-2.31228e-10
8.55688e-11
3.75737e-11
-3.47295e-12
3.80724e-11
-1.02543e-11
3.89284e-11
-1.70676e-11
4.01883e-11
-2.39979e-11
4.19224e-11
-3.1213e-11
4.42255e-11
-3.90332e-11
4.72084e-11
-4.79753e-11
5.09827e-11
-5.87355e-11
5.55918e-11
-7.23923e-11
6.10224e-11
-8.94135e-11
6.69655e-11
-1.11677e-10
7.32871e-11
-1.35781e-10
7.90966e-11
-1.6845e-10
8.49783e-11
-1.90304e-10
-2.35486e-10
8.92365e-11
4.23071e-11
-3.64849e-12
4.2829e-11
-1.07762e-11
4.37249e-11
-1.79635e-11
4.50422e-11
-2.53152e-11
4.68511e-11
-3.30219e-11
4.9242e-11
-4.14242e-11
5.2315e-11
-5.10483e-11
5.61607e-11
-6.25813e-11
6.07947e-11
-7.70262e-11
6.61685e-11
-9.47873e-11
7.19621e-11
-1.17471e-10
7.8028e-11
-1.41847e-10
8.35361e-11
-1.73959e-10
8.90478e-11
-1.95816e-10
-2.39379e-10
9.29408e-11
4.73119e-11
-3.83154e-12
4.78565e-11
-1.13208e-11
4.87907e-11
-1.88977e-11
5.01622e-11
-2.66866e-11
5.20391e-11
-3.48988e-11
5.45058e-11
-4.38909e-11
5.76499e-11
-5.41923e-11
6.15402e-11
-6.64717e-11
6.61656e-11
-8.16516e-11
7.14473e-11
-1.00069e-10
7.70591e-11
-1.23083e-10
8.28456e-11
-1.47634e-10
8.80344e-11
-1.79147e-10
9.31632e-11
-2.00945e-10
-2.42896e-10
9.66799e-11
5.25875e-11
-4.02173e-12
5.31537e-11
-1.1887e-11
5.41237e-11
-1.98678e-11
5.55444e-11
-2.81073e-11
5.74807e-11
-3.6835e-11
6.00093e-11
-4.64196e-11
6.32036e-11
-5.73866e-11
6.71107e-11
-7.03788e-11
7.16945e-11
-8.62354e-11
7.68506e-11
-1.05225e-10
8.2251e-11
-1.28483e-10
8.77364e-11
-1.53119e-10
9.2589e-11
-1.84e-10
9.73223e-11
-2.05678e-10
-2.46026e-10
1.00452e-10
5.81322e-11
-4.21849e-12
5.87181e-11
-1.24729e-11
5.97205e-11
-2.08702e-11
6.11842e-11
-2.9571e-11
6.31695e-11
-3.88204e-11
6.57441e-11
-4.89942e-11
6.89663e-11
-6.06088e-11
7.28619e-11
-7.42743e-11
7.73719e-11
-9.07455e-11
8.23707e-11
-1.10224e-10
8.75324e-11
-1.33645e-10
9.26967e-11
-1.58283e-10
9.71972e-11
-1.88501e-10
1.01523e-10
-2.10004e-10
-2.48759e-10
1.04256e-10
6.39433e-11
-4.42104e-12
6.45466e-11
-1.30762e-11
6.55768e-11
-2.19003e-11
6.70758e-11
-3.107e-11
6.90982e-11
-4.08428e-11
7.17015e-11
-5.15975e-11
7.49284e-11
-6.38357e-11
7.87839e-11
-7.81298e-11
8.31891e-11
-9.51506e-11
8.80009e-11
-1.15036e-10
9.28985e-11
-1.38542e-10
9.77233e-11
-1.63108e-10
1.01857e-10
-1.92634e-10
1.05763e-10
-2.13911e-10
-2.51086e-10
1.0809e-10
7.00174e-11
-4.6284e-12
7.06351e-11
-1.36939e-11
7.16874e-11
-2.29527e-11
7.32128e-11
-3.25954e-11
7.5259e-11
-4.28889e-11
7.78724e-11
-5.42109e-11
8.108e-11
-6.70432e-11
8.48673e-11
-8.19171e-11
8.91376e-11
-9.9421e-11
9.37347e-11
-1.19633e-10
9.8345e-11
-1.43152e-10
1.02813e-10
-1.67576e-10
1.06564e-10
-1.96385e-10
1.10041e-10
-2.17388e-10
-2.52996e-10
1.11952e-10
7.63501e-11
-4.83939e-12
7.69786e-11
-1.43224e-11
7.80467e-11
-2.40208e-11
7.95884e-11
-3.41371e-11
8.16438e-11
-4.49443e-11
8.42477e-11
-5.68148e-11
8.74117e-11
-7.02072e-11
9.1103e-11
-8.56084e-11
9.52099e-11
-1.03528e-10
9.95662e-11
-1.23989e-10
1.03867e-10
-1.47454e-10
1.07962e-10
-1.71671e-10
1.11318e-10
-1.99741e-10
1.14354e-10
-2.20424e-10
-2.54482e-10
1.1584e-10
8.29364e-11
-5.05263e-12
8.35716e-11
-1.49575e-11
8.46482e-11
-2.50974e-11
8.6195e-11
-3.56839e-11
8.82441e-11
-4.69934e-11
9.08184e-11
-5.93891e-11
9.39142e-11
-7.3303e-11
9.74824e-11
-8.91767e-11
1.01399e-10
-1.07444e-10
1.0549e-10
-1.2808e-10
1.09462e-10
-1.51426e-10
1.13168e-10
-1.75378e-10
1.16115e-10
-2.02688e-10
1.18701e-10
-2.2301e-10
-2.55534e-10
1.19753e-10
8.97706e-11
-5.26658e-12
9.04078e-11
-1.55948e-11
9.14848e-11
-2.61744e-11
9.30248e-11
-3.7224e-11
9.50513e-11
-4.90198e-11
9.75752e-11
-6.1913e-11
1.00578e-10
-7.63063e-11
1.03997e-10
-9.25956e-11
1.07697e-10
-1.11144e-10
1.115e-10
-1.31883e-10
1.15124e-10
-1.55049e-10
1.18428e-10
-1.78682e-10
1.20954e-10
-2.05214e-10
1.23079e-10
-2.25135e-10
-2.56145e-10
1.2369e-10
9.68462e-11
-5.47955e-12
9.74805e-11
-1.6229e-11
9.85492e-11
-2.72431e-11
1.0007e-10
-3.87445e-11
1.02057e-10
-5.10067e-11
1.04509e-10
-6.43656e-11
1.07396e-10
-7.91931e-11
1.1064e-10
-9.58397e-11
1.14099e-10
-1.14603e-10
1.17593e-10
-1.35377e-10
1.20851e-10
-1.58307e-10
1.23738e-10
-1.81569e-10
1.2583e-10
-2.07306e-10
1.27486e-10
-2.26791e-10
-2.56307e-10
1.27649e-10
1.04156e-10
-5.68972e-12
1.04782e-10
-1.68549e-11
1.05834e-10
-2.82943e-11
1.07321e-10
-4.02323e-11
1.09251e-10
-5.29367e-11
1.11612e-10
-6.67259e-11
1.14358e-10
-8.19399e-11
1.17403e-10
-9.88848e-11
1.20598e-10
-1.17798e-10
1.23762e-10
-1.38541e-10
1.26638e-10
-1.61182e-10
1.29096e-10
-1.84027e-10
1.30743e-10
-2.08953e-10
1.31921e-10
-2.2797e-10
-2.56014e-10
1.31628e-10
1.11694e-10
-5.89513e-12
1.12306e-10
-1.74666e-11
1.1333e-10
-2.93182e-11
1.14771e-10
-4.16736e-11
1.16627e-10
-5.47922e-11
1.18874e-10
-6.8973e-11
1.21457e-10
-8.45236e-11
1.2428e-10
-1.01707e-10
1.27189e-10
-1.20707e-10
1.30004e-10
-1.41357e-10
1.32481e-10
-1.63659e-10
1.34497e-10
-1.86043e-10
1.35689e-10
-2.10144e-10
1.36382e-10
-2.28663e-10
-2.55258e-10
1.35626e-10
1.19451e-10
-6.09377e-12
1.20043e-10
-1.80582e-11
1.2103e-10
-3.0305e-11
1.22411e-10
-4.30545e-11
1.24174e-10
-5.65556e-11
1.26287e-10
-7.10863e-11
1.28686e-10
-8.69219e-11
1.31263e-10
-1.04285e-10
1.33865e-10
-1.23309e-10
1.36315e-10
-1.43806e-10
1.38378e-10
-1.65723e-10
1.39941e-10
-1.87606e-10
1.40667e-10
-2.1087e-10
1.40867e-10
-2.28863e-10
-2.54033e-10
1.39642e-10
1.2742e-10
-6.28354e-12
1.27985e-10
-1.86235e-11
1.28925e-10
-3.12444e-11
1.30231e-10
-4.43608e-11
1.31885e-10
-5.82093e-11
1.33844e-10
-7.30457e-11
1.36036e-10
-8.91133e-11
1.38347e-10
-1.06597e-10
1.40623e-10
-1.25585e-10
1.42689e-10
-1.45872e-10
1.44326e-10
-1.6736e-10
1.45424e-10
-1.88704e-10
1.45673e-10
-2.11119e-10
1.45374e-10
-2.28564e-10
-2.52334e-10
1.43675e-10
1.35593e-10
-6.4623e-12
1.36125e-10
-1.91561e-11
1.37007e-10
-3.21259e-11
1.38224e-10
-4.55784e-11
1.39751e-10
-5.97359e-11
1.41537e-10
-7.48314e-11
1.435e-10
-9.10769e-11
1.45525e-10
-1.08622e-10
1.47456e-10
-1.27515e-10
1.49123e-10
-1.4754e-10
1.50319e-10
-1.68556e-10
1.50943e-10
-1.89327e-10
1.50708e-10
-2.10884e-10
1.49902e-10
-2.27758e-10
-2.50155e-10
1.47723e-10
1.4396e-10
-6.62787e-12
1.44454e-10
-1.96498e-11
1.45267e-10
-3.29393e-11
1.46382e-10
-4.66932e-11
1.47764e-10
-6.11182e-11
1.49357e-10
-7.64241e-11
1.51073e-10
-9.27928e-11
1.52792e-10
-1.10341e-10
1.5436e-10
-1.29083e-10
1.55614e-10
-1.48793e-10
1.56357e-10
-1.69299e-10
1.56495e-10
-1.89466e-10
1.55767e-10
-2.10156e-10
1.54449e-10
-2.26439e-10
-2.47491e-10
1.51784e-10
1.52514e-10
-6.77808e-12
1.52963e-10
-2.0098e-11
1.53697e-10
-3.3674e-11
1.54695e-10
-4.76912e-11
1.55917e-10
-6.23394e-11
1.57298e-10
-7.78052e-11
1.58747e-10
-9.42418e-11
1.60142e-10
-1.11736e-10
1.61331e-10
-1.30272e-10
1.62156e-10
-1.49619e-10
1.62435e-10
-1.69577e-10
1.62079e-10
-1.8911e-10
1.60849e-10
-2.08927e-10
1.59013e-10
-2.24603e-10
-2.44337e-10
1.55859e-10
1.61247e-10
-6.91075e-12
1.61644e-10
-2.04945e-11
1.6229e-10
-3.43198e-11
1.63157e-10
-4.85587e-11
1.64201e-10
-6.33832e-11
1.65352e-10
-7.89567e-11
1.66516e-10
-9.54055e-11
1.67569e-10
-1.12789e-10
1.68363e-10
-1.31066e-10
1.68747e-10
-1.50003e-10
1.6855e-10
-1.6938e-10
1.67691e-10
-1.88251e-10
1.65953e-10
-2.07189e-10
1.63594e-10
-2.22244e-10
-2.40689e-10
1.59946e-10
1.7015e-10
-7.02375e-12
1.70488e-10
-2.08328e-11
1.71035e-10
-3.48665e-11
1.71759e-10
-4.92822e-11
1.72609e-10
-6.42335e-11
1.73514e-10
-7.98614e-11
1.74375e-10
-9.62664e-11
1.75069e-10
-1.13484e-10
1.75454e-10
-1.31451e-10
1.75384e-10
-1.49933e-10
1.747e-10
-1.68696e-10
1.7333e-10
-1.86881e-10
1.71077e-10
-2.04935e-10
1.68189e-10
-2.19357e-10
-2.36543e-10
1.64043e-10
1.79215e-10
-7.11496e-12
1.79489e-10
-2.11069e-11
1.79927e-10
-3.53041e-11
1.80493e-10
-4.98486e-11
1.81135e-10
-6.48751e-11
1.81776e-10
-8.05025e-11
1.82317e-10
-9.68077e-11
1.82637e-10
-1.13804e-10
1.82598e-10
-1.31412e-10
1.82062e-10
-1.49397e-10
1.80882e-10
-1.67516e-10
1.78993e-10
-1.84992e-10
1.76218e-10
-2.02159e-10
1.72798e-10
-2.15937e-10
-2.31895e-10
1.6815e-10
1.88434e-10
-7.18231e-12
1.88637e-10
-2.13105e-11
1.88956e-10
-3.56229e-11
1.89353e-10
-5.0245e-11
1.8977e-10
-6.52929e-11
1.90132e-10
-8.0864e-11
1.90337e-10
-9.70133e-11
1.90269e-10
-1.13735e-10
1.89792e-10
-1.30935e-10
1.88779e-10
-1.48384e-10
1.87094e-10
-1.65831e-10
1.84679e-10
-1.82577e-10
1.81375e-10
-1.98856e-10
1.77419e-10
-2.11981e-10
-2.26742e-10
1.72266e-10
1.97799e-10
-7.22378e-12
1.97926e-10
-2.14378e-11
1.98116e-10
-3.58134e-11
1.9833e-10
-5.04592e-11
1.9851e-10
-6.54725e-11
1.98577e-10
-8.09304e-11
1.98431e-10
-9.68679e-11
1.97959e-10
-1.13263e-10
1.97032e-10
-1.30009e-10
1.95531e-10
-1.46883e-10
1.93332e-10
-1.63631e-10
1.90384e-10
-1.79629e-10
1.86547e-10
-1.95019e-10
1.8205e-10
-2.07485e-10
-2.2108e-10
1.76389e-10
2.07302e-10
-7.23743e-12
2.07347e-10
-2.14829e-11
2.074e-10
-3.58663e-11
2.0742e-10
-5.04791e-11
2.07348e-10
-6.54001e-11
2.07104e-10
-8.06871e-11
2.06593e-10
-9.63568e-11
2.05703e-10
-1.12373e-10
2.04315e-10
-1.2862e-10
2.02316e-10
-1.44884e-10
1.99594e-10
-1.60909e-10
1.96107e-10
-1.76142e-10
1.91731e-10
-1.90643e-10
1.86691e-10
-2.02445e-10
-2.14907e-10
1.80518e-10
2.16937e-10
-7.22136e-12
2.16895e-10
-2.14402e-11
2.16801e-10
-3.57727e-11
2.16615e-10
-5.02931e-11
2.16277e-10
-6.50622e-11
2.1571e-10
-8.01198e-11
2.14819e-10
-9.5466e-11
2.13499e-10
-1.11053e-10
2.11637e-10
-1.26758e-10
2.0913e-10
-1.42377e-10
2.05877e-10
-1.57656e-10
2.01845e-10
-1.7211e-10
1.96926e-10
-1.85724e-10
1.91338e-10
-1.96857e-10
-2.0822e-10
1.84652e-10
2.26698e-10
-7.17376e-12
2.26562e-10
-2.13042e-11
2.26313e-10
-3.55238e-11
2.2591e-10
-4.98899e-11
2.25293e-10
-6.44459e-11
2.24388e-10
-7.92147e-11
2.23104e-10
-9.4182e-11
2.21341e-10
-1.0929e-10
2.18994e-10
-1.24412e-10
2.15971e-10
-1.39353e-10
2.1218e-10
-1.53866e-10
2.07596e-10
-1.67526e-10
2.02129e-10
-1.80257e-10
1.95992e-10
-1.9072e-10
-2.01018e-10
1.88789e-10
2.36576e-10
-7.09284e-12
2.36342e-10
-2.10696e-11
2.35929e-10
-3.51114e-11
2.35298e-10
-4.92588e-11
2.34391e-10
-6.35387e-11
2.33135e-10
-7.79587e-11
2.31445e-10
-9.24916e-11
2.29226e-10
-1.07071e-10
2.26384e-10
-1.2157e-10
2.22835e-10
-1.35804e-10
2.18499e-10
-1.4953e-10
2.13359e-10
-1.62386e-10
2.0734e-10
-1.74238e-10
2.0065e-10
-1.84029e-10
-1.93297e-10
1.92929e-10
2.46568e-10
-6.97692e-12
2.4623e-10
-2.07314e-11
2.45646e-10
-3.45272e-11
2.44776e-10
-4.8389e-11
2.43566e-10
-6.23284e-11
2.41946e-10
-7.63389e-11
2.39837e-10
-9.03822e-11
2.37151e-10
-1.04386e-10
2.33804e-10
-1.18222e-10
2.29719e-10
-1.31719e-10
2.24832e-10
-1.44642e-10
2.1913e-10
-1.56685e-10
2.12556e-10
-1.67664e-10
2.0531e-10
-1.76783e-10
-1.85058e-10
1.97071e-10
2.56668e-10
-6.82434e-12
2.56221e-10
-2.02844e-11
2.55457e-10
-3.37633e-11
2.54338e-10
-4.72704e-11
2.52813e-10
-6.08033e-11
2.50817e-10
-7.43429e-11
2.48276e-10
-8.78415e-11
2.45113e-10
-1.01223e-10
2.41249e-10
-1.14359e-10
2.36622e-10
-1.27092e-10
2.31175e-10
-1.39195e-10
2.24907e-10
-1.50417e-10
2.17774e-10
-1.6053e-10
2.0997e-10
-1.68979e-10
-1.76299e-10
2.01211e-10
2.6687e-10
-6.63354e-12
2.6631e-10
-1.97239e-11
2.65359e-10
-3.28119e-11
2.63981e-10
-4.5893e-11
2.6213e-10
-5.89518e-11
2.59745e-10
-7.19584e-11
2.56761e-10
-8.48574e-11
2.53108e-10
-9.75696e-11
2.48719e-10
-1.0997e-10
2.4354e-10
-1.21913e-10
2.37528e-10
-1.33183e-10
2.30688e-10
-1.43578e-10
2.22992e-10
-1.52834e-10
2.14629e-10
-1.60616e-10
-1.6702e-10
2.0535e-10
2.77173e-10
-6.40296e-12
2.76494e-10
-1.90451e-11
2.75347e-10
-3.16654e-11
2.73701e-10
-4.42468e-11
2.71512e-10
-5.67626e-11
2.68727e-10
-6.91734e-11
2.65287e-10
-8.14179e-11
2.61133e-10
-9.34154e-11
2.56208e-10
-1.05045e-10
2.50469e-10
-1.16174e-10
2.43885e-10
-1.26599e-10
2.3647e-10
-1.36162e-10
2.28209e-10
-1.44573e-10
2.19283e-10
-1.51691e-10
-1.57221e-10
2.09484e-10
2.87571e-10
-6.1311e-12
2.86769e-10
-1.82433e-11
2.8542e-10
-3.03164e-11
2.83496e-10
-4.23223e-11
2.80958e-10
-5.42245e-11
2.7776e-10
-6.5976e-11
2.73853e-10
-7.7511e-11
2.69187e-10
-8.8749e-11
2.63716e-10
-9.95737e-11
2.57409e-10
-1.09867e-10
2.50246e-10
-1.19436e-10
2.4225e-10
-1.28166e-10
2.3342e-10
-1.35743e-10
2.23931e-10
-1.42202e-10
-1.46903e-10
2.13613e-10
2.98063e-10
-5.81651e-12
2.97134e-10
-1.73139e-11
2.95575e-10
-2.87576e-11
2.93363e-10
-4.01099e-11
2.90465e-10
-5.13263e-11
2.86843e-10
-6.23541e-11
2.82456e-10
-7.31248e-11
2.77266e-10
-8.3559e-11
2.71239e-10
-9.35465e-11
2.64355e-10
-1.02983e-10
2.56606e-10
-1.11688e-10
2.48024e-10
-1.19584e-10
2.38623e-10
-1.26341e-10
2.28569e-10
-1.32148e-10
-1.36068e-10
2.17734e-10
3.08648e-10
-5.45771e-12
3.07587e-10
-1.62525e-11
3.05811e-10
-2.69816e-11
3.03301e-10
-3.75999e-11
3.00031e-10
-4.8057e-11
2.95973e-10
-5.82959e-11
2.91095e-10
-6.82469e-11
2.8537e-10
-7.78337e-11
2.78776e-10
-8.69524e-11
2.71305e-10
-9.5512e-11
2.62964e-10
-1.03346e-10
2.5379e-10
-1.10411e-10
2.43814e-10
-1.16365e-10
2.33194e-10
-1.21529e-10
-1.24717e-10
2.21844e-10
3.19324e-10
-5.0533e-12
3.18126e-10
-1.50545e-11
3.16126e-10
-2.49811e-11
3.13309e-10
-3.4783e-11
3.09657e-10
-4.44053e-11
3.0515e-10
-5.3789e-11
2.99769e-10
-6.28651e-11
2.93496e-10
-7.15609e-11
2.86324e-10
-7.97803e-11
2.78257e-10
-8.74456e-11
2.69315e-10
-9.44033e-11
2.59545e-10
-1.00641e-10
2.4899e-10
-1.05811e-10
2.37803e-10
-1.10341e-10
-1.12855e-10
2.2594e-10
3.30093e-10
-4.60183e-12
3.28754e-10
-1.37153e-11
3.26522e-10
-2.2749e-11
3.23388e-10
-3.16493e-11
3.19342e-10
-4.03598e-11
3.14375e-10
-4.88211e-11
3.08476e-10
-5.69664e-11
3.01643e-10
-6.4728e-11
2.93881e-10
-7.20185e-11
2.85209e-10
-7.87729e-11
2.75656e-10
-8.48512e-11
2.65283e-10
-9.02677e-11
2.54148e-10
-9.46753e-11
2.4239e-10
-9.85835e-11
-1.00484e-10
2.3002e-10
3.40955e-10
-4.10187e-12
3.3947e-10
-1.22305e-11
3.36999e-10
-2.02777e-11
3.33539e-10
-2.81892e-11
3.29088e-10
-3.5909e-11
3.23646e-10
-4.33794e-11
3.17217e-10
-5.05375e-11
3.09811e-10
-5.7322e-11
3.01447e-10
-6.36545e-11
2.92157e-10
-6.94829e-11
2.81986e-10
-7.46803e-11
2.71003e-10
-7.92846e-11
2.59281e-10
-8.29535e-11
2.46952e-10
-8.62544e-11
-8.76112e-11
2.34079e-10
3.51913e-10
-3.55196e-12
3.50278e-10
-1.05954e-11
3.4756e-10
-1.75598e-11
3.43764e-10
-2.43928e-11
3.38895e-10
-3.10409e-11
3.32967e-10
-3.74506e-11
3.25994e-10
-4.35644e-11
3.18e-10
-4.93287e-11
3.09021e-10
-5.46748e-11
2.99101e-10
-5.95632e-11
2.88301e-10
-6.38803e-11
2.767e-10
-6.76833e-11
2.64387e-10
-7.06409e-11
2.51483e-10
-7.33504e-11
-7.42408e-11
2.38113e-10
3.62971e-10
-2.95062e-12
3.61181e-10
-8.80543e-12
3.58209e-10
-1.45877e-11
3.54066e-10
-2.02498e-11
3.48768e-10
-2.57434e-11
3.42338e-10
-3.1021e-11
3.34807e-10
-3.60327e-11
3.26211e-10
-4.07335e-11
3.16602e-10
-4.50651e-11
3.06039e-10
-4.90006e-11
2.94599e-10
-5.24397e-11
2.8237e-10
-5.54545e-11
2.69461e-10
-5.77321e-11
2.55978e-10
-5.98671e-11
-6.03788e-11
2.42116e-10
3.74133e-10
-2.29634e-12
3.72183e-10
-6.85579e-12
3.68949e-10
-1.13538e-11
3.64449e-10
-1.57499e-11
3.58709e-10
-2.00038e-11
3.51765e-10
-2.40764e-11
3.43659e-10
-2.79269e-11
3.34446e-10
-3.15204e-11
3.24191e-10
-3.48101e-11
3.12971e-10
-3.77803e-11
3.00877e-10
-4.03459e-11
2.88009e-10
-4.25869e-11
2.74498e-10
-4.42208e-11
2.60429e-10
-4.57979e-11
-4.60302e-11
2.4608e-10
3.85405e-10
-1.58756e-12
3.83291e-10
-4.74166e-12
3.79787e-10
-7.84991e-12
3.7492e-10
-1.08823e-11
3.68725e-10
-1.38091e-11
3.6125e-10
-1.66018e-11
3.52555e-10
-1.9231e-11
3.42707e-10
-2.16727e-11
3.3179e-10
-2.3893e-11
3.19895e-10
-2.58859e-11
3.07134e-10
-2.75851e-11
2.93614e-10
-2.90666e-11
2.79494e-10
-3.0101e-11