/*--------------------------------*- C++ -*----------------------------------*\
| =========                 |                                                 |
| \\      /  F ield         | OpenFOAM: The Open Source CFD Toolbox           |
|  \\    /   O peration     | Version:  5.x                                   |
|   \\  /    A nd           | Web:      www.OpenFOAM.org                      |
|    \\/     M anipulation  |                                                 |
\*---------------------------------------------------------------------------*/
FoamFile
{
    version     2.0;
    format      ascii;
    class       volVectorField;
    location    "0.01";
    object      U;
}
// * * * * * * * * * * * * * * * * * * * * * * * * * * * * * * * * * * * * * //

dimensions      [0 1 -1 0 0 0 0];

internalField   nonuniform List<vector> 
7200
(
(-0.00089001 -4.64554e-05 0)
(-0.00088866 -0.000136354 5.30906e-23)
(-0.000827214 -0.000220644 -2.94319e-22)
(-0.000862292 -0.000314583 0)
(-0.000647311 -0.000345167 -6.86895e-22)
(-0.000914264 -0.000523026 2.02162e-22)
(-0.000189692 -0.000285217 -2.99297e-21)
(-0.0013325 -0.000972072 2.91218e-23)
(0.000947137 0.00038571 -7.64654e-21)
(-0.00266223 -0.00226462 0)
(0.00315247 0.00235207 -1.14263e-22)
(-0.00442783 -0.00421586 1.61944e-20)
(0.00372694 0.00276246 0)
(-0.00214953 -0.000910983 -1.00758e-20)
(0.000657087 -0.000393525 -1.64623e-21)
(-0.00262797 -0.000142078 -3.57388e-25)
(-0.0026077 -0.000421936 3.53466e-25)
(-0.00246049 -0.00068063 0)
(-0.00246677 -0.000961851 -1.20634e-23)
(-0.00202653 -0.00108956 1.00902e-21)
(-0.00237683 -0.00152039 -5.08754e-22)
(-0.00109749 -0.00109307 1.97063e-23)
(-0.00278558 -0.00246079 -1.37568e-21)
(0.00088593 0.000120291 1.13013e-20)
(-0.00451445 -0.00491482 1.87811e-23)
(0.00455615 0.00409285 1.34471e-20)
(-0.00733219 -0.00933993 -2.42557e-20)
(0.00634501 0.00662414 2.93949e-20)
(-0.00371948 -0.00289329 1.57378e-20)
(0.00188478 -0.000917043 -1.17349e-21)
(-0.00428584 -0.000235906 -2.03972e-24)
(-0.00424105 -0.000702255 3.90356e-25)
(-0.0040263 -0.00113648 -7.91197e-24)
(-0.00396969 -0.00158747 7.65136e-24)
(-0.00338087 -0.00185256 0)
(-0.00367729 -0.00242295 1.04318e-21)
(-0.002099 -0.00206807 9.81309e-24)
(-0.00392169 -0.00352895 1.36003e-21)
(0.00052184 -0.000932252 3.52213e-23)
(-0.00589007 -0.00602544 -4.50281e-21)
(0.00566813 0.00333579 -1.85766e-21)
(-0.010357 -0.0110788 1.40038e-22)
(0.0101443 0.00805909 -3.06301e-20)
(-0.00636331 -0.00443441 0)
(0.003556 -0.00125729 5.45389e-21)
(-0.00585683 -0.00032833 3.47854e-24)
(-0.00578471 -0.000979963 1.05232e-22)
(-0.00551225 -0.00158732 0)
(-0.00537519 -0.00220496 -5.89799e-22)
(-0.00467974 -0.00261114 -7.76248e-25)
(-0.0048445 -0.00330137 -1.22358e-21)
(-0.00312848 -0.00306238 0)
(-0.00478627 -0.00450551 0)
(-0.000136005 -0.00213129 0)
(-0.00656389 -0.00676156 4.66744e-21)
(0.00578229 0.00188335 -1.22695e-20)
(-0.0118675 -0.0114136 6.67948e-23)
(0.0129968 0.00817462 1.01371e-22)
(-0.00877297 -0.00569191 -2.20954e-23)
(0.0055603 -0.00145405 -2.94359e-21)
(-0.00733413 -0.00041949 -2.73942e-24)
(-0.00723363 -0.001254 -1.04757e-22)
(-0.00690875 -0.00203255 -2.62824e-22)
(-0.00668457 -0.00281277 1.21013e-21)
(-0.00590125 -0.00336179 -1.10469e-21)
(-0.00590558 -0.0041603 6.4051e-22)
(-0.00411574 -0.00405273 2.08952e-23)
(-0.0054959 -0.00544007 0)
(-0.000866016 -0.00335125 -2.70063e-24)
(-0.00689184 -0.00737988 2.35239e-24)
(0.00543449 0.000267886 6.83772e-23)
(-0.0123026 -0.0111012 -5.46696e-23)
(0.0149325 0.00742288 2.11264e-20)
(-0.0107981 -0.00667564 0)
(0.00794644 -0.00154093 2.88301e-21)
(-0.00871058 -0.000509177 -5.12669e-25)
(-0.00858161 -0.00152311 3.57867e-24)
(-0.00820749 -0.00247048 -1.34353e-23)
(-0.00789495 -0.00340866 -6.34148e-22)
(-0.00703214 -0.00410037 2.23618e-21)
(-0.00686949 -0.00499955 2.30775e-23)
(-0.00502712 -0.00502605 -2.14972e-23)
(-0.00610005 -0.00634926 0)
(-0.00156331 -0.00453905 0)
(-0.00704834 -0.0079743 0)
(0.00496905 -0.00127948 0)
(-0.0120931 -0.0105757 1.08464e-20)
(0.0161576 0.0061221 -2.20068e-20)
(-0.0123869 -0.00738673 5.35627e-23)
(0.0107436 -0.00154335 -6.1462e-21)
(-0.00997853 -0.000597057 0)
(-0.00982153 -0.00178616 -3.23087e-24)
(-0.00940043 -0.00289916 2.78819e-22)
(-0.00900091 -0.00399042 -7.01671e-22)
(-0.00806272 -0.00482276 2.86957e-23)
(-0.00773577 -0.00581747 0)
(-0.00584577 -0.00597343 0)
(-0.00661367 -0.00723738 0)
(-0.0021833 -0.00567007 3.79679e-21)
(-0.00709264 -0.00857687 2.15511e-21)
(0.00454316 -0.00266787 -4.48568e-23)
(-0.0115101 -0.0100962 -1.07571e-20)
(0.0168298 0.00453603 1.77237e-20)
(-0.0134641 -0.00783904 4.20502e-23)
(0.0139711 -0.00148109 1.42011e-22)
(-0.0111298 -0.000682734 -4.72492e-24)
(-0.0109455 -0.00204198 -3.39774e-24)
(-0.0104793 -0.00331651 -2.95892e-22)
(-0.00999553 -0.00455559 1.45154e-21)
(-0.00898452 -0.00552497 -2.38242e-21)
(-0.00849965 -0.00661099 -8.37018e-24)
(-0.00656115 -0.00688852 -1.98978e-21)
(-0.00703745 -0.00810161 -6.3023e-22)
(-0.0027041 -0.00673509 -8.23435e-23)
(-0.00704007 -0.00918952 -2.19729e-21)
(0.00421974 -0.00388644 0)
(-0.0107317 -0.00978611 0)
(0.0171022 0.00287066 -3.51746e-20)
(-0.0139537 -0.00805406 4.42006e-23)
(0.0176425 -0.0013699 1.62826e-22)
(-0.0121555 -0.000765767 4.74297e-24)
(-0.011945 -0.00228929 -3.57193e-24)
(-0.0114356 -0.0037203 6.16561e-22)
(-0.0108709 -0.00510137 4.21101e-23)
(-0.00978916 -0.006203 1.18758e-21)
(-0.00915419 -0.00737605 -1.04333e-21)
(-0.00716476 -0.00776602 4.05326e-21)
(-0.00736607 -0.00893589 5.98402e-22)
(-0.00311256 -0.00773168 -3.75535e-21)
(-0.00689254 -0.00980313 1.35503e-21)
(0.00401508 -0.00495831 -2.8066e-23)
(-0.00987045 -0.00967399 -1.10708e-22)
(0.0171375 0.00127726 1.73356e-20)
(-0.0137936 -0.00805674 0)
(0.0217658 -0.00122248 1.6361e-22)
(-0.0130464 -0.000845674 -6.05844e-24)
(-0.0128107 -0.00252674 -1.53548e-22)
(-0.0122599 -0.00410815 -3.17578e-22)
(-0.0116181 -0.00562469 -7.96309e-22)
(-0.0104679 -0.00685264 -1.91972e-23)
(-0.00969114 -0.00810793 1.11217e-21)
(-0.00764844 -0.00860074 2.3801e-23)
(-0.00759144 -0.00973308 -9.70084e-22)
(-0.00339977 -0.00865916 3.58437e-23)
(-0.0066488 -0.0104061 -1.38772e-21)
(0.00392381 -0.00591089 0)
(-0.00898051 -0.00973126 0)
(0.017099 -0.000138228 -5.25332e-23)
(-0.0129364 -0.00787414 7.86079e-23)
(0.0263437 -0.0010492 3.5425e-21)
(-0.0137922 -0.000921941 6.0817e-24)
(-0.0135327 -0.00275285 3.21272e-22)
(-0.0129423 -0.00447751 -8.33341e-24)
(-0.0122276 -0.00612219 1.1867e-23)
(-0.0110114 -0.00746945 1.35265e-21)
(-0.0101012 -0.00880146 8.17298e-24)
(-0.00800366 -0.0093872 -2.13257e-21)
(-0.0077042 -0.0104857 2.07645e-21)
(-0.00355906 -0.00951624 -3.68452e-23)
(-0.00630755 -0.0109861 -6.6596e-23)
(0.00393672 -0.00676212 5.72055e-23)
(-0.00806764 -0.00989886 -6.16834e-21)
(0.0171428 -0.00130712 1.47132e-20)
(-0.0113485 -0.00753456 4.30219e-23)
(0.0313734 -0.000858611 -3.52037e-21)
(-0.0143821 -0.000994024 0)
(-0.0141001 -0.00296606 -1.67955e-22)
(-0.0134723 -0.00482571 1.28312e-23)
(-0.0126888 -0.00659027 -1.24848e-23)
(-0.0114095 -0.00804874 -2.7449e-21)
(-0.010374 -0.00945101 -8.18941e-24)
(-0.00822117 -0.0101195 2.68549e-23)
(-0.00769433 -0.0111858 -1.06529e-21)
(-0.00358447 -0.0102997 -3.80011e-23)
(-0.00586639 -0.0115286 0)
(0.00405238 -0.00751617 0)
(-0.00710015 -0.0101058 6.31819e-21)
(0.0174131 -0.00219122 -1.52171e-20)
(-0.00901044 -0.00706664 -6.59318e-21)
(0.0368476 -0.000657793 3.75716e-21)
(-0.0148047 -0.00106135 0)
(-0.0145014 -0.00316471 0)
(-0.0138385 -0.00514993 1.34776e-23)
(-0.0129906 -0.00702506 5.95882e-24)
(-0.0116512 -0.00858552 -8.60185e-23)
(-0.0104986 -0.0100506 2.15096e-23)
(-0.00829074 -0.0107911 -2.25684e-21)
(-0.00755115 -0.0118247 0)
(-0.00346927 -0.0110036 -2.52795e-23)
(-0.00531912 -0.0120167 6.88066e-23)
(0.00428321 -0.00816433 0)
(-0.00601929 -0.010282 0)
(0.0180382 -0.00277686 0)
(-0.00591592 -0.00649852 1.32213e-20)
(0.0427547 -0.000452538 0)
(-0.0150475 -0.00112334 0)
(-0.0147245 -0.00334709 1.9899e-22)
(-0.0140286 -0.00544722 3.87871e-22)
(-0.0131206 -0.00742253 0)
(-0.0117246 -0.00907454 1.42151e-21)
(-0.0104626 -0.0105937 5.36654e-23)
(-0.00820099 -0.0113947 4.54301e-21)
(-0.00726281 -0.0123929 1.61733e-21)
(-0.00320434 -0.0116189 0)
(-0.00465297 -0.0124303 -1.16568e-22)
(0.0046575 -0.00868874 6.03886e-23)
(-0.00474897 -0.0103662 0)
(0.0191277 -0.00306954 3.13799e-23)
(-0.00207093 -0.0058571 -6.60603e-21)
(0.04908 -0.000247509 7.55052e-21)
(-0.0150975 -0.00117938 8.92331e-24)
(-0.0147562 -0.0035114 -8.90368e-23)
(-0.0140295 -0.00571456 -4.47563e-24)
(-0.0130658 -0.00777843 1.44547e-23)
(-0.0116165 -0.00951028 2.49764e-23)
(-0.0102528 -0.0110734 -5.6169e-23)
(-0.00793906 -0.0119224 5.28645e-23)
(-0.00681566 -0.0128795 -1.57559e-21)
(-0.00277655 -0.0121337 0)
(-0.00384653 -0.0127469 0)
(0.00521853 -0.00906683 0)
(-0.00320426 -0.0103107 0)
(0.0207709 -0.00308914 0)
(0.00250764 -0.00516736 0)
(0.0558057 -4.63372e-05 -8.06627e-21)
(-0.0149409 -0.00122887 -9.91993e-24)
(-0.0145826 -0.00365582 -1.0548e-22)
(-0.0138274 -0.00594882 -8.12937e-22)
(-0.012812 -0.00808839 -3.68468e-23)
(-0.0113128 -0.00988703 -5.25597e-24)
(-0.00985428 -0.0114825 2.50918e-23)
(-0.00749028 -0.0123654 -2.45682e-21)
(-0.00619338 -0.0132727 3.21756e-23)
(-0.00216751 -0.0125338 3.52111e-23)
(-0.00286892 -0.0129433 -9.21855e-22)
(0.00602186 -0.00927594 7.03739e-21)
(-0.00129885 -0.0100833 0)
(0.0230363 -0.00286568 1.36704e-20)
(0.00779369 -0.00445188 1.7559e-23)
(0.0629123 0.000148295 -7.9051e-21)
(-0.0145631 -0.00127117 1.26846e-23)
(-0.014189 -0.00377851 -1.06587e-24)
(-0.0134074 -0.00614689 4.23875e-22)
(-0.0123441 -0.00834796 -2.26276e-23)
(-0.0107981 -0.0101989 -1.65434e-21)
(-0.00925096 -0.0118135 -3.50965e-23)
(-0.00683777 -0.0127142 -2.49792e-21)
(-0.00537633 -0.0135599 -2.12661e-21)
(-0.00135271 -0.012804 0)
(-0.00168015 -0.0129972 9.04159e-22)
(0.00713139 -0.00929695 -7.17295e-21)
(0.00104906 -0.0096674 -2.97687e-21)
(0.0259718 -0.00243565 -1.40371e-20)
(0.0137537 -0.00373036 1.55577e-23)
(0.0703792 0.000334565 8.41886e-21)
(-0.0139486 -0.0013057 8.54966e-25)
(-0.0135599 -0.00387763 0)
(-0.0127538 -0.00630564 0)
(-0.0116459 -0.00855271 1.2867e-21)
(-0.0100556 -0.01044 1.69243e-21)
(-0.00842486 -0.0120587 8.9371e-24)
(-0.00596215 -0.0129594 5.21308e-21)
(-0.00434098 -0.0137282 4.37653e-21)
(-0.00030136 -0.0129288 0)
(-0.000232449 -0.0128892 -1.49961e-21)
(0.008615 -0.00911702 7.09328e-21)
(0.00391212 -0.0090609 2.8976e-21)
(0.0296057 -0.00183877 -1.34735e-20)
(0.0203487 -0.00301937 5.33151e-21)
(0.0781853 0.000511413 0)
(-0.0130814 -0.00133188 -1.3754e-23)
(-0.0126791 -0.00395143 -1.27018e-22)
(-0.0118499 -0.00642208 -1.77034e-23)
(-0.0107002 -0.0086983 -5.67812e-22)
(-0.0090672 -0.0106046 -2.3786e-23)
(-0.00735619 -0.0122105 0)
(-0.0048413 -0.0130914 -2.63993e-21)
(-0.00305978 -0.0137652 -2.32409e-21)
(0.00102312 -0.0128945 4.08693e-21)
(0.00152754 -0.0126048 1.56419e-21)
(0.0105402 -0.00873118 -1.42957e-20)
(0.00735061 -0.00827377 0)
(0.0339489 -0.00111533 1.38859e-20)
(0.0275359 -0.00233218 -5.55142e-21)
(0.0863094 0.000678434 -8.40859e-21)
(-0.0119446 -0.00134914 1.43652e-23)
(-0.0115295 -0.00399824 1.22808e-22)
(-0.0106782 -0.00649334 -4.7044e-22)
(-0.00948853 -0.0087806 -6.81489e-22)
(-0.00781337 -0.0106871 -1.87576e-21)
(-0.00602328 -0.0122617 0)
(-0.00345033 -0.0131012 -4.29636e-23)
(-0.00150128 -0.0136602 4.03522e-23)
(0.00266211 -0.0126901 -4.185e-21)
(0.00365609 -0.012135 -8.1436e-23)
(0.0129705 -0.0081429 1.44156e-20)
(0.0114105 -0.00732566 1.37031e-21)
(0.0389969 -0.000304098 1.33073e-20)
(0.035271 -0.00167882 5.14809e-21)
(0.0947313 0.000835758 8.89092e-21)
(-0.010521 -0.00135701 -2.84152e-23)
(-0.0100935 -0.00401653 -1.30755e-24)
(-0.00922059 -0.00651683 2.80951e-24)
(-0.0079917 -0.00879588 -7.35866e-22)
(-0.00627324 -0.0106825 -5.67562e-23)
(-0.00440258 -0.0122059 -4.11539e-23)
(-0.00176173 -0.0129813 3.91898e-23)
(0.000369298 -0.0134042 0)
(0.00466024 -0.0123086 4.3377e-21)
(0.00620954 -0.0114777 8.34245e-23)
(0.0159618 -0.00736377 -1.90705e-22)
(0.0161228 -0.006243 -2.63825e-21)
(0.0447322 0.000559355 -2.66508e-20)
(0.0435091 -0.00106623 -2.92766e-22)
(0.103432 0.000983923 0)
(-0.00879256 -0.00135504 1.53704e-23)
(-0.00835274 -0.00400499 0)
(-0.00745795 -0.00649029 5.15703e-22)
(-0.00618941 -0.00874089 -2.45415e-23)
(-0.00442471 -0.0105866 -5.62635e-23)
(-0.00246889 -0.0120378 -4.26955e-23)
(0.000254248 -0.0127257 -2.99973e-21)
(0.00258923 -0.0129917 -2.92424e-21)
(0.00706358 -0.0117476 -8.83194e-21)
(0.0092416 -0.0106378 8.52531e-23)
(0.0195604 -0.00641252 -1.44916e-20)
(0.0215037 -0.00505634 1.87028e-21)
(0.0511276 0.00144376 1.34285e-20)
(0.0522066 -0.00049845 -1.013e-20)
(0.112392 0.00112375 -8.86649e-21)
(-0.00674093 -0.00134291 1.43865e-24)
(-0.00628849 -0.00396255 -1.53128e-22)
(-0.00537069 -0.00641193 -5.29671e-22)
(-0.0040606 -0.00861308 7.57433e-22)
(-0.00224458 -0.0103961 1.99643e-21)
(-0.000195571 -0.0117536 2.46996e-21)
(0.00262906 -0.0123307 3.02435e-21)
(0.00519714 -0.0124202 2.95457e-21)
(0.00991772 -0.0110098 4.4953e-21)
(0.0128009 -0.00962641 8.68738e-23)
(0.0238013 -0.00531352 5.71276e-23)
(0.0275556 -0.00379782 -7.57697e-22)
(0.0581483 0.00232286 -1.26512e-20)
(0.061322 2.29331e-05 9.95831e-21)
(0.121597 0.00125622 9.37368e-21)
(-0.00434745 -0.00132035 0)
(-0.00388162 -0.00388844 1.52331e-22)
(-0.00293877 -0.00628047 -1.55408e-23)
(-0.00158362 -0.00841069 0)
(0.000291151 -0.010109 2.1819e-21)
(0.00244498 -0.0113511 -2.43285e-21)
(0.00539512 -0.0117953 3.13368e-21)
(0.00823175 -0.0116916 4.84306e-23)
(0.0132658 -0.0101032 -6.09322e-23)
(0.0169289 -0.00846075 -3.0123e-21)
(0.0287075 -0.00409503 7.2796e-21)
(0.034269 -0.00249908 0)
(0.065755 0.00317564 1.3007e-20)
(0.0708171 0.000498423 -2.23623e-22)
(0.131031 0.00138236 -3.02697e-23)
(-0.00159327 -0.00128724 1.55724e-24)
(-0.00111279 -0.00378226 -8.65053e-24)
(-0.000141818 -0.00609526 5.78004e-22)
(0.00126357 -0.00813296 3.03494e-23)
(0.00320697 -0.00972468 -4.39665e-21)
(0.00548084 -0.0108305 4.712e-23)
(0.0085849 -0.0111215 1.58197e-23)
(0.0117306 -0.0108117 -3.36194e-21)
(0.0171471 -0.00904066 4.64723e-21)
(0.0216587 -0.0071626 3.26261e-21)
(0.0342902 -0.00278745 -8.06236e-23)
(0.0416241 -0.00118958 2.82567e-22)
(0.0739058 0.00398632 -1.14488e-22)
(0.0806568 0.000930137 -4.92955e-21)
(0.140682 0.00150316 0)
(0.00154048 -0.00124359 0)
(0.00203737 -0.00364401 -7.32323e-24)
(0.00304058 -0.00585639 7.2358e-24)
(0.00450312 -0.00778021 0)
(0.00652745 -0.00924401 -4.77055e-23)
(0.00893996 -0.0101941 2.74132e-21)
(0.0122301 -0.0103143 -3.44652e-21)
(0.0157286 -0.00979012 3.44835e-21)
(0.0215951 -0.00783932 -4.76903e-21)
(0.0270141 -0.00575712 9.0145e-23)
(0.0405495 -0.00142155 -7.14205e-21)
(0.0495935 0.00010462 -1.6094e-22)
(0.0825583 0.00474398 0)
(0.0908106 0.00132135 4.58435e-21)
(0.150538 0.0016195 0)
(0.00507249 -0.00118953 1.66884e-24)
(0.00558808 -0.00347411 5.87496e-24)
(0.00662868 -0.00556469 -6.03009e-22)
(0.00815699 -0.0073539 -2.29902e-23)
(0.0102768 -0.00866967 4.61107e-21)
(0.0128495 -0.00944632 -2.66221e-21)
(0.0163607 -0.00938183 -4.77436e-23)
(0.0202571 -0.00864024 0)
(0.0266368 -0.0065198 4.90943e-21)
(0.0330094 -0.00427149 -6.24546e-23)
(0.0474755 -2.70236e-05 7.24723e-21)
(0.0581442 0.00136162 7.15099e-23)
(0.0916713 0.00544206 1.15428e-20)
(0.101251 0.00167607 -4.75293e-21)
(0.160588 0.00173207 9.4772e-21)
(0.00902111 -0.00112535 2.16606e-23)
(0.00955819 -0.00327346 -7.73389e-24)
(0.0106424 -0.0052218 1.26354e-21)
(0.0122466 -0.00685676 0)
(0.0144786 -0.008006 -2.30013e-21)
(0.0172353 -0.00859418 2.75281e-21)
(0.0210039 -0.00833502 -8.87867e-24)
(0.0253428 -0.00737849 -3.64811e-21)
(0.0322922 -0.00510521 -4.90128e-21)
(0.0396496 -0.00273352 0)
(0.0550501 0.00136876 0)
(0.0672397 0.00256403 1.19495e-22)
(0.101206 0.00607761 -1.2092e-20)
(0.111956 0.00199861 0)
(0.170825 0.00184138 -1.95396e-20)
(0.0134042 -0.0010515 -2.35173e-23)
(0.013966 -0.00304341 1.76026e-24)
(0.0151008 -0.00483019 3.56655e-23)
(0.0167925 -0.0062927 8.94086e-22)
(0.0191548 -0.00725904 0)
(0.0221211 -0.00764674 9.66351e-23)
(0.026184 -0.00718728 -4.99502e-23)
(0.0310071 -0.00602371 7.53041e-21)
(0.0385737 -0.0036201 4.85005e-21)
(0.0469313 -0.00117042 3.89867e-21)
(0.0632486 0.00274163 0)
(0.076842 0.00369898 0)
(0.111127 0.00665063 5.81656e-24)
(0.122906 0.00229328 -4.28268e-21)
(0.18124 0.0019477 3.75946e-22)
(0.0182387 -0.000968559 -1.15852e-23)
(0.0188289 -0.00278579 0)
(0.0200222 -0.00439314 -6.2598e-22)
(0.021814 -0.00566686 -9.47671e-22)
(0.0243261 -0.00643641 -1.23612e-21)
(0.0275281 -0.00661497 8.91285e-23)
(0.0319209 -0.00595411 -5.08634e-23)
(0.0372659 -0.00459644 -3.89938e-21)
(0.0454863 -0.00208942 -4.98344e-21)
(0.0548437 0.000392199 -3.82312e-21)
(0.0720415 0.00407115 0)
(0.0869134 0.00475779 1.07682e-21)
(0.121402 0.00716331 0)
(0.134084 0.00256412 2.5168e-22)
(0.191827 0.00205111 1.01332e-20)
(0.0235408 -0.000877279 9.77568e-24)
(0.0241633 -0.00250288 2.00375e-22)
(0.0254236 -0.00391471 1.73766e-23)
(0.027329 -0.00498545 9.27716e-22)
(0.0300107 -0.00554715 1.24346e-21)
(0.0334744 -0.00551152 -2.98583e-21)
(0.0382305 -0.00465254 -6.08816e-23)
(0.0441288 -0.0031181 -1.37003e-23)
(0.0530282 -0.000537651 6.81772e-23)
(0.0633694 0.00193118 8.96442e-23)
(0.0813962 0.0053409 -2.25127e-23)
(0.0974171 0.00573556 -1.26689e-21)
(0.132003 0.00761927 9.35458e-23)
(0.145476 0.00281468 4.38202e-21)
(0.202579 0.00215149 9.77425e-21)
(0.0293255 -0.000778532 0)
(0.0299846 -0.00219739 -1.99467e-22)
(0.0313207 -0.00339965 8.30007e-24)
(0.0333534 -0.00425568 -9.57765e-22)
(0.0362246 -0.00460151 4.43337e-23)
(0.0399748 -0.00435027 1.09041e-23)
(0.045124 -0.00330056 -5.22582e-23)
(0.0515999 -0.00161025 0)
(0.0611917 0.00101206 4.92952e-21)
(0.0724865 0.00342631 0)
(0.0912787 0.00653838 -6.49311e-21)
(0.108319 0.00663047 1.29273e-21)
(0.142905 0.00802301 -1.0277e-20)
(0.157072 0.00304794 0)
(0.21349 0.00224857 -2.00609e-20)
(0.0356063 -0.000673316 -1.92517e-24)
(0.0363063 -0.00187238 1.91626e-24)
(0.0377272 -0.00285333 7.16382e-22)
(0.039901 -0.00348559 -2.58934e-23)
(0.0429809 -0.00361066 -1.28219e-21)
(0.0470405 -0.00314596 5.44791e-23)
(0.052608 -0.00191659 -1.14648e-22)
(0.059678 -9.39214e-05 -1.2774e-23)
(0.0699632 0.00253851 5.75969e-23)
(0.0821693 0.0048607 1.96519e-23)
(0.101655 0.00765482 6.52558e-21)
(0.119588 0.00744319 5.64322e-23)
(0.154089 0.00837933 1.55542e-20)
(0.168862 0.00326619 4.27767e-23)
(0.224556 0.00234193 1.0247e-20)
(0.0423956 -0.000562734 1.27088e-23)
(0.0431407 -0.00153125 -2.0708e-22)
(0.0446553 -0.00228162 1.18194e-23)
(0.0469835 -0.00268384 -9.86867e-22)
(0.05029 -0.00258644 1.28973e-21)
(0.054679 -0.00191378 -1.55159e-21)
(0.0606844 -0.000518892 0)
(0.0683566 0.001411 -7.20169e-23)
(0.0793254 0.00402289 -4.89285e-21)
(0.0923899 0.00622077 8.62618e-23)
(0.112491 0.00868472 -2.0511e-23)
(0.131195 0.00817617 -1.56516e-21)
(0.165535 0.00869294 -5.04272e-21)
(0.180837 0.00347109 -3.79373e-21)
(0.235771 0.00243111 -3.21832e-23)
(0.0497036 -0.000447973 -1.47345e-23)
(0.0504981 -0.00117763 2.01295e-22)
(0.0521149 -0.0016908 1.51085e-24)
(0.0546099 -0.00185956 9.91919e-22)
(0.058159 -0.00154106 -1.29603e-21)
(0.0628939 -0.000668943 5.97865e-23)
(0.0693512 0.000874892 -5.31929e-23)
(0.0776251 0.00288622 0)
(0.0892571 0.00544905 -7.1632e-23)
(0.103119 0.00749622 1.52428e-22)
(0.123755 0.00962537 -7.90044e-23)
(0.143116 0.00883305 0)
(0.177229 0.00896815 -2.6418e-24)
(0.19299 0.00366368 3.96541e-21)
(0.247129 0.00251555 0)
(0.0575392 -0.000330276 0)
(0.058387 -0.000815336 -8.71667e-24)
(0.0601139 -0.00108738 -1.07481e-21)
(0.0627869 -0.00102209 -1.00632e-21)
(0.066592 -0.000486758 2.63702e-21)
(0.0716854 0.000573666 1.62253e-21)
(0.078602 0.00224815 -3.78151e-21)
(0.0874691 0.00431538 -7.09694e-23)
(0.099735 0.00680361 -3.08608e-24)
(0.114328 0.00867976 1.50317e-22)
(0.135417 0.0104763 5.83655e-21)
(0.155328 0.0094181 0)
(0.189158 0.00920872 0)
(0.205314 0.00384444 0)
(0.258626 0.00259472 0)
(0.0659092 -0.000210925 -2.00111e-24)
(0.0668139 -0.000448285 1.0738e-23)
(0.0686578 -0.000477973 1.93115e-23)
(0.0715183 -0.000180822 1.97222e-21)
(0.0755904 0.000564404 -1.25985e-21)
(0.0810503 0.00179984 -9.8933e-23)
(0.0884274 0.00358563 7.51486e-21)
(0.0978715 0.00568428 -7.0162e-23)
(0.110734 0.00807595 6.7241e-23)
(0.125987 0.00976672 0)
(0.14745 0.0112387 -6.01263e-21)
(0.167813 0.00993583 0)
(0.20131 0.00941769 -4.46367e-21)
(0.217803 0.00401343 -1.54869e-24)
(0.270256 0.0026681 -9.81446e-21)
(0.0748185 -9.12077e-05 0)
(0.0757831 -8.04118e-05 2.02169e-22)
(0.07775 0.000130809 1.97691e-24)
(0.0808057 0.000655029 -1.00233e-21)
(0.0851523 0.00160084 1.2907e-21)
(0.0909822 0.00299632 -1.49271e-21)
(0.0988147 0.00487369 -5.6208e-21)
(0.108813 0.00698094 -3.92613e-21)
(0.122229 0.009258 0)
(0.138068 0.0107547 7.94643e-23)
(0.159829 0.011915 -7.47247e-23)
(0.180553 0.0103906 0)
(0.213675 0.00959744 2.42796e-22)
(0.23045 0.00417036 0)
(0.282014 0.00273519 1.02272e-20)
(0.0842701 2.76005e-05 2.00586e-24)
(0.0852971 0.000284401 -2.05029e-22)
(0.0873915 0.000732513 3.53891e-22)
(0.0906478 0.00147659 0)
(0.0952732 0.00261166 -1.29812e-21)
(0.101472 0.00415101 3.09209e-21)
(0.109749 0.0061004 1.78896e-21)
(0.120271 0.00819563 3.95272e-21)
(0.134193 0.0103441 6.54627e-23)
(0.150546 0.0116431 7.75064e-23)
(0.172531 0.0125084 -7.3089e-23)
(0.193534 0.0107865 -1.6494e-21)
(0.226245 0.0097497 4.44186e-21)
(0.243249 0.00431471 0)
(0.293894 0.0027956 9.71082e-21)
(0.0942649 0.000144265 0)
(0.0953562 0.000642396 2.09502e-22)
(0.0975813 0.00132095 3.66938e-22)
(0.101041 0.00227549 9.48354e-24)
(0.105946 0.0035868 -3.53298e-23)
(0.112508 0.00525314 -1.49202e-21)
(0.121213 0.00725567 -1.83987e-21)
(0.132226 0.00932076 -6.68018e-23)
(0.146602 0.0113305 -2.24742e-24)
(0.163396 0.0124328 -3.75237e-21)
(0.185536 0.0130223 0)
(0.206742 0.0111272 1.68145e-21)
(0.239009 0.00987563 0)
(0.256193 0.00444579 3.23507e-21)
(0.305891 0.002849 -4.61219e-22)
(0.104802 0.00025761 1.11219e-23)
(0.105958 0.000990005 -1.99684e-22)
(0.108316 0.00189031 -4.54969e-24)
(0.11198 0.003044 0)
(0.117162 0.00451721 4.40002e-23)
(0.124077 0.00629334 9.07409e-24)
(0.133189 0.00833121 3.5096e-21)
(0.144653 0.0103507 -6.54253e-23)
(0.15943 0.0122154 -2.04491e-24)
(0.176594 0.0131256 4.00086e-21)
(0.198825 0.0134605 -6.95979e-23)
(0.220166 0.0114156 0)
(0.251961 0.00997594 -3.80314e-25)
(0.269276 0.0045629 -3.33146e-21)
(0.317999 0.00289513 -4.62006e-22)
(0.115878 0.000366541 -1.31647e-23)
(0.1171 0.0013239 -8.55058e-24)
(0.11959 0.00243521 -6.55072e-22)
(0.123457 0.00377509 -2.59099e-23)
(0.12891 0.00539491 -1.23876e-21)
(0.136163 0.00726369 1.47696e-21)
(0.145656 0.00932046 -1.77216e-21)
(0.15753 0.0112816 -1.90614e-21)
(0.172654 0.0129983 6.18197e-23)
(0.19012 0.0137242 7.1289e-23)
(0.212381 0.0138265 -2.54259e-21)
(0.233795 0.0116544 -8.25665e-23)
(0.26509 0.010051 7.63805e-23)
(0.28249 0.0046653 0)
(0.330213 0.00293385 -4.61945e-22)
(0.127489 0.000470055 0)
(0.128776 0.00164105 -9.7524e-23)
(0.131397 0.00295083 3.43766e-22)
(0.135462 0.00446258 0)
(0.141177 0.00621305 2.67915e-23)
(0.148751 0.00815774 -3.51852e-23)
(0.158596 0.0102185 0)
(0.170836 0.0121113 1.79591e-21)
(0.186251 0.0136799 2.16738e-21)
(0.203953 0.0142315 -5.96791e-23)
(0.22619 0.0141237 4.95685e-21)
(0.247618 0.0118457 -4.82269e-23)
(0.27839 0.0101009 1.08317e-25)
(0.29583 0.00475237 -2.95022e-21)
(0.342527 0.00296508 -9.78962e-21)
(0.139627 0.000567259 -1.92473e-24)
(0.140978 0.00193874 9.15305e-23)
(0.143727 0.00343288 8.28104e-24)
(0.147984 0.00510111 9.0023e-22)
(0.153948 0.00696593 6.24941e-23)
(0.161821 0.00897039 -1.41111e-21)
(0.171986 0.0110219 -1.70103e-21)
(0.184547 0.0128387 -1.82141e-21)
(0.2002 0.0142619 -1.94638e-21)
(0.218075 0.0146509 8.78777e-24)
(0.240237 0.0143552 -1.29594e-22)
(0.261626 0.0119913 7.82595e-22)
(0.291852 0.0101257 -3.57594e-21)
(0.309287 0.00482356 3.03099e-21)
(0.354936 0.00298886 0)
(0.152285 0.000657374 0)
(0.153698 0.0022146 -9.45137e-23)
(0.15657 0.0038777 2.50009e-23)
(0.16101 0.00568621 -4.66394e-23)
(0.167208 0.00764898 2.37609e-21)
(0.175357 0.0096979 -4.82581e-23)
(0.185807 0.0117286 1.65836e-21)
(0.198642 0.0134641 1.82791e-21)
(0.21448 0.0147464 1.92839e-21)
(0.23247 0.0149858 1.69898e-21)
(0.254509 0.014524 -1.12869e-22)
(0.27581 0.0120926 -9.68811e-23)
(0.305468 0.0101254 3.72279e-21)
(0.322857 0.00487845 -4.29978e-25)
(0.367435 0.00300529 -9.05359e-21)
(0.165453 0.000739742 -1.86e-24)
(0.166925 0.00246665 8.87313e-23)
(0.169914 0.00428225 7.99943e-24)
(0.174526 0.00621427 -9.21549e-22)
(0.180941 0.00825872 -1.13898e-21)
(0.189339 0.0103377 7.52683e-24)
(0.200039 0.0123377 -4.62091e-23)
(0.213101 0.0139886 1.61269e-21)
(0.229072 0.0151363 -1.94846e-21)
(0.247122 0.0152396 -1.23888e-23)
(0.268994 0.0146326 -6.3016e-23)
(0.29016 0.0121508 -1.69209e-21)
(0.319229 0.0100999 -3.33241e-21)
(0.336531 0.00491678 2.67827e-21)
(0.380017 0.00301452 9.34977e-21)
(0.179119 0.000813832 0)
(0.180647 0.00269324 0)
(0.183746 0.00464407 0)
(0.188517 0.00668253 0)
(0.195129 0.0087927 0)
(0.203748 0.0108884 4.58265e-23)
(0.21466 0.0128493 -9.57536e-23)
(0.227904 0.014414 -3.31195e-21)
(0.243959 0.0154345 1.09297e-22)
(0.262015 0.0154156 -1.66294e-21)
(0.283679 0.0146835 -2.24182e-21)
(0.304667 0.0121671 1.62381e-21)
(0.333128 0.0100494 6.61148e-21)
(0.350303 0.00493841 -5.3352e-21)
(0.392679 0.0030168 0)
(0.193272 0.000879233 9.83007e-24)
(0.194851 0.00289313 9.47705e-24)
(0.198052 0.00496135 -7.6628e-24)
(0.202967 0.00708905 0)
(0.209755 0.00924942 0)
(0.218565 0.0113495 4.45427e-23)
(0.229652 0.0132643 1.43802e-21)
(0.243032 0.0147428 3.15519e-21)
(0.259122 0.0156444 -1.69542e-21)
(0.277136 0.0155172 0)
(0.298553 0.0146787 4.43019e-23)
(0.319322 0.0121425 -6.95477e-23)
(0.347157 0.00997399 -3.27526e-21)
(0.364167 0.00494335 5.15678e-21)
(0.405415 0.0030124 0)
(0.207898 0.000935655 -1.16595e-23)
(0.209524 0.0030654 0)
(0.212815 0.00523282 2.28509e-23)
(0.21786 0.00743262 -5.30055e-23)
(0.224801 0.00962826 3.0022e-23)
(0.233772 0.0117214 0)
(0.244996 0.0135845 -1.49196e-21)
(0.258466 0.0149778 -1.63797e-21)
(0.274547 0.0157694 1.81463e-21)
(0.292472 0.0155476 0)
(0.313606 0.0146205 0)
(0.334117 0.0120782 -7.32118e-22)
(0.361307 0.00987401 -6.02413e-23)
(0.378118 0.00493172 -4.98013e-21)
(0.418221 0.00300165 0)
(0.222982 0.000982926 -1.69065e-24)
(0.22465 0.0032095 -5.63015e-24)
(0.228021 0.00545778 -1.49575e-23)
(0.233178 0.00771276 -3.83846e-22)
(0.240249 0.00992937 -3.60019e-23)
(0.249349 0.0120053 1.25078e-21)
(0.260671 0.0138122 0)
(0.27419 0.0151224 -5.01932e-23)
(0.290216 0.015813 1.67651e-21)
(0.308009 0.0155097 5.40868e-23)
(0.328827 0.0145108 -5.2335e-23)
(0.349044 0.0119752 0)
(0.37557 0.00974989 0)
(0.392148 0.00490377 2.47125e-21)
(0.431091 0.00298491 0)
(0.238509 0.00102098 5.28649e-24)
(0.240213 0.00332518 8.1818e-23)
(0.243654 0.00563602 0)
(0.248905 0.00792964 -1.49231e-23)
(0.25608 0.0101536 6.32638e-23)
(0.265278 0.0122029 -2.47463e-21)
(0.276662 0.0139501 -1.30431e-21)
(0.290186 0.0151799 1.37613e-21)
(0.306117 0.0157789 -7.4152e-23)
(0.323736 0.0154068 4.67817e-23)
(0.344205 0.0143517 3.99654e-23)
(0.364095 0.0118347 2.09007e-23)
(0.389941 0.00960217 -5.67304e-23)
(0.406252 0.00485983 0)
(0.444022 0.00296257 0)
(0.254464 0.00104985 -6.90136e-24)
(0.256198 0.00341251 -8.05804e-23)
(0.259696 0.00576782 0)
(0.265022 0.00808398 4.2384e-22)
(0.272277 0.0103024 -2.75048e-23)
(0.281541 0.0123168 1.18405e-21)
(0.292949 0.0140015 1.35297e-21)
(0.306439 0.015154 -1.43501e-21)
(0.322235 0.0156706 -1.53501e-21)
(0.339642 0.0152418 -4.51231e-23)
(0.359732 0.0141451 0)
(0.37926 0.0116579 7.68768e-22)
(0.404411 0.00943152 -5.35977e-23)
(0.420425 0.00480032 -9.20287e-25)
(0.457008 0.00293501 0)
(0.27083 0.00106967 0)
(0.272587 0.00347181 0)
(0.27613 0.00585385 0)
(0.281514 0.00817704 -3.70314e-22)
(0.288823 0.0103779 -4.68202e-22)
(0.298121 0.0123497 0)
(0.309517 0.0139699 0)
(0.322934 0.0150488 -4.49068e-23)
(0.338557 0.0154917 -4.57092e-25)
(0.355714 0.0150177 9.14744e-23)
(0.375397 0.0138931 -4.66702e-23)
(0.394533 0.0114463 -1.4124e-21)
(0.418973 0.00923869 9.86802e-25)
(0.434661 0.00472572 -9.39132e-25)
(0.470047 0.00290264 0)
(0.287591 0.00108064 0)
(0.289365 0.00350366 0)
(0.29294 0.00589518 -2.56875e-22)
(0.298361 0.00821052 3.7207e-22)
(0.305698 0.0103824 4.95838e-23)
(0.315 0.0123047 -3.12703e-23)
(0.32635 0.013859 0)
(0.339656 0.0148679 1.23452e-21)
(0.355069 0.0152459 -3.86796e-25)
(0.371943 0.0147374 4.187e-23)
(0.391191 0.0135976 1.60266e-21)
(0.409907 0.0112011 7.17623e-22)
(0.43362 0.0090245 -4.93202e-23)
(0.448957 0.00463655 -9.53659e-25)
(0.483133 0.00286587 0)
(0.304729 0.00108305 -1.43858e-24)
(0.306515 0.00350886 -6.42133e-23)
(0.310108 0.00589322 3.34262e-24)
(0.315547 0.00818652 -2.51065e-23)
(0.322887 0.0103188 4.79804e-22)
(0.332161 0.0121855 3.52075e-23)
(0.343431 0.0136728 1.12916e-21)
(0.35659 0.0146157 -1.32792e-21)
(0.371761 0.0149368 -3.2353e-25)
(0.388318 0.0144039 4.02908e-23)
(0.407106 0.0132608 -8.14631e-23)
(0.425373 0.0109239 0)
(0.448347 0.00878983 -2.31473e-21)
(0.463306 0.00453338 1.92023e-21)
(0.496264 0.00282508 -6.97265e-21)
(0.322229 0.00107725 0)
(0.324019 0.00348841 7.22288e-23)
(0.327617 0.00584965 2.31143e-22)
(0.333054 0.0081075 1.82995e-23)
(0.340373 0.0101902 2.94216e-23)
(0.34959 0.0119959 -5.58068e-22)
(0.360746 0.0134155 -1.1373e-21)
(0.373724 0.014296 -3.99301e-23)
(0.38862 0.014568 -2.66806e-25)
(0.40483 0.0140202 3.87526e-23)
(0.423132 0.0128847 -2.92057e-21)
(0.440926 0.0106161 1.57703e-23)
(0.463147 0.00853557 2.29983e-21)
(0.477705 0.00441677 -1.95115e-21)
(0.509434 0.00278063 7.10354e-21)
(0.340073 0.00106365 2.78187e-24)
(0.34186 0.00344347 1.33387e-24)
(0.345451 0.00576644 1.77668e-23)
(0.350867 0.00797619 5.72773e-24)
(0.35814 0.0100003 -2.32489e-23)
(0.36727 0.0117399 4.64921e-22)
(0.37828 0.0130914 3.23339e-23)
(0.391046 0.0139132 0)
(0.405635 0.0141433 -1.20005e-21)
(0.421468 0.0135891 -1.1552e-21)
(0.439263 0.0124715 1.45092e-21)
(0.456558 0.0102793 4.56807e-23)
(0.478014 0.00826267 -4.42188e-23)
(0.492148 0.00428733 2.15175e-23)
(0.522641 0.00273288 -2.05825e-23)
(0.358245 0.00104269 -9.34611e-24)
(0.360023 0.00337537 6.59429e-23)
(0.363594 0.00564577 0)
(0.36897 0.00779562 3.12244e-22)