/*--------------------------------*- C++ -*----------------------------------*\
| =========                 |                                                 |
| \\      /  F ield         | OpenFOAM: The Open Source CFD Toolbox           |
|  \\    /   O peration     | Version:  5.x                                   |
|   \\  /    A nd           | Web:      www.OpenFOAM.org                      |
|    \\/     M anipulation  |                                                 |
\*---------------------------------------------------------------------------*/
FoamFile
{
    version     2.0;
    format      ascii;
    class       volScalarField;
    location    "0.02";
    object      p;
}
// * * * * * * * * * * * * * * * * * * * * * * * * * * * * * * * * * * * * * //

dimensions      [0 2 -2 0 0 0 0];

internalField   nonuniform List<scalar> 
7200
(
0.000117062
-0.0711229
-0.0278213
0.248177
0.60076
0.908324
1.17234
1.40982
1.60489
1.71611
1.70148
1.53691
1.22419
0.788403
0.272558
-0.270288
-0.783384
-1.21407
-1.5202
-1.67796
-1.68685
-1.5717
-1.3745
-1.13619
-0.87197
-0.564346
-0.211729
0.0641449
0.107291
0.0359651
-0.0133126
-0.0818777
0.0284184
0.351973
0.691259
0.963208
1.19389
1.39841
1.558
1.63553
1.59729
1.42621
1.12675
0.721952
0.249129
-0.246534
-0.716843
-1.11693
-1.41019
-1.5747
-1.60717
-1.5255
-1.3635
-1.15792
-0.926916
-0.654875
-0.315529
0.00795311
0.118068
0.0494211
-0.0302383
-0.0793066
0.102051
0.451542
0.761943
0.996548
1.19506
1.36717
1.49316
1.54113
1.48462
1.31188
1.02884
0.656209
0.226103
-0.223222
-0.651027
-1.0193
-1.29651
-1.46292
-1.51367
-1.46138
-1.33272
-1.15932
-0.960342
-0.725598
-0.415118
-0.0656466
0.115538
0.0663519
-0.049885
-0.0603913
0.188849
0.543526
0.816842
1.01652
1.18606
1.32922
1.42671
1.45125
1.38185
1.21034
0.943332
0.599356
0.206265
-0.203187
-0.594156
-0.934082
-1.19559
-1.36097
-1.42465
-1.39564
-1.29525
-1.15057
-0.980421
-0.780551
-0.507141
-0.152434
0.0966713
0.0860141
-0.070593
-0.0222245
0.286706
0.62788
0.859555
1.0267
1.16934
1.28606
1.35874
1.36406
1.28531
1.1169
0.865659
0.548099
0.188431
-0.185217
-0.542919
-0.856699
-1.10274
-1.26522
-1.33829
-1.32837
-1.25258
-1.13414
-0.990741
-0.823337
-0.591553
-0.250306
0.0585495
0.106752
-0.0893068
0.0375022
0.390979
0.70138
0.890052
1.02755
1.14524
1.23797
1.28919
1.27886
1.19364
1.02982
0.794126
0.501222
0.172164
-0.168858
-0.496089
-0.785456
-1.01621
-1.17431
-1.25388
-1.25951
-1.20499
-1.11033
-0.991741
-0.853921
-0.665126
-0.354618
-0.00114831
0.125502
-0.101776
0.119373
0.495679
0.761103
0.908523
1.01958
1.1144
1.18581
1.21884
1.19611
1.10693
0.948847
0.728348
0.458399
0.15734
-0.153981
-0.453335
-0.719964
-0.935772
-1.08831
-1.17192
-1.18985
-1.15335
-1.07982
-0.983947
-0.872492
-0.724932
-0.45938
-0.0830143
0.138006
-0.102749
0.221826
0.594456
0.805432
0.915837
1.00358
1.0777
1.13057
1.1485
1.11626
1.02517
0.873687
0.667912
0.41929
0.143834
-0.140451
-0.414313
-0.659811
-0.861123
-1.00725
-1.09281
-1.12018
-1.09862
-1.04345
-0.96814
-0.879914
-0.769348
-0.558233
-0.185488
0.139007
-0.0862334
0.341018
0.681204
0.833986
0.913147
0.98036
1.03603
1.07313
1.0788
1.03954
0.948249
0.80396
0.612362
0.383542
0.131514
-0.128133
-0.378666
-0.604541
-0.791887
-0.930989
-1.01682
-1.05115
-1.04169
-1.00213
-0.945121
-0.877338
-0.797989
-0.645069
-0.304725
0.122507
-0.0458643
0.470887
0.750649
0.84748
0.901668
0.950701
0.990295
1.0143
1.01027
0.966134
0.875999
0.739296
0.561281
0.350836
0.120264
-0.116905
-0.346073
-0.553738
-0.7277
-0.859383
-0.944128
-0.983289
-0.983386
-0.956747
-0.915672
-0.86598
-0.811568
-0.714605
-0.434661
0.0821421
0.0246295
0.603436
0.798882
0.847536
0.882551
0.915386
0.941383
0.95482
0.943355
0.89614
0.808249
0.679353
0.514293
0.32089
0.109981
-0.106662
-0.316251
-0.507026
-0.668221
-0.79226
-0.874836
-0.917031
-0.924434
-0.908198
-0.880577
-0.846986
-0.811706
-0.762928
-0.567292
0.0116404
0.130913
0.729231
0.823783
0.836398
0.856788
0.875218
0.890164
0.895337
0.878406
0.82962
0.744814
0.623809
0.471061
0.293455
0.100575
-0.097309
-0.288945
-0.464067
-0.61313
-0.729438
-0.80901
-0.852743
-0.865486
-0.857352
-0.840638
-0.821349
-0.800645
-0.787913
-0.693179
-0.0946606
0.277534
0.838086
0.825258
0.816592
0.825175
0.831033
0.837462
0.83641
0.815708
0.766588
0.685501
0.57236
0.431273
0.268303
0.0919641
-0.0887622
-0.263928
-0.42455
-0.562125
-0.670728
-0.746666
-0.790708
-0.807103
-0.805035
-0.79669
-0.789865
-0.780911
-0.789463
-0.802134
-0.241306
0.467461
0.919865
0.805266
0.790568
0.788325
0.783708
0.784032
0.778509
0.755474
0.707021
0.630114
0.524724
0.394649
0.245233
0.0840761
-0.0809467
-0.240998
-0.388193
-0.514923
-0.615936
-0.687786
-0.731146
-0.749762
-0.752004
-0.749611
-0.753149
-0.754956
-0.769535
-0.884015
-0.431261
0.701722
0.965316
0.767628
0.760394
0.746733
0.734155
0.730544
0.722026
0.697863
0.650868
0.578456
0.480635
0.360934
0.224062
0.0768464
-0.0737958
-0.219969
-0.354741
-0.47126
-0.564865
-0.63232
-0.674217
-0.693854
-0.698932
-0.700318
-0.711695
-0.724847
-0.73195
-0.929567
-0.665554
0.979188
0.966862
0.717649
0.72751
0.700862
0.683306
0.677565
0.667278
0.642981
0.598053
0.530333
0.439846
0.329893
0.204629
0.0702169
-0.0672496
-0.200678
-0.323959
-0.430888
-0.517323
-0.580195
-0.620031
-0.639703
-0.646391
-0.649742
-0.665971
-0.692028
-0.682011
-0.93121
-0.943055
1.29652
0.919256
0.661572
0.692601
0.651249
0.63207
0.62556
0.614517
0.590892
0.548484
0.485553
0.402126
0.301316
0.186784
0.0641355
-0.0612545
-0.182975
-0.295634
-0.393577
-0.473118
-0.531319
-0.568653
-0.587564
-0.594848
-0.598799
-0.616514
-0.657187
-0.625964
-0.883695
-1.26043
1.64829
0.820045
0.605962
0.655588
0.598596
0.581292
0.57489
0.563944
0.541621
0.502056
0.443931
0.367262
0.275008
0.170395
0.0585555
-0.0557623
-0.166726
-0.269573
-0.359112
-0.432064
-0.485588
-0.520113
-0.537641
-0.544672
-0.548339
-0.564032
-0.620246
-0.570374
-0.784567
-1.61224
2.02727
0.669781
0.557055
0.615727
0.543829
0.531703
0.525827
0.515711
0.495164
0.458653
0.405288
0.335054
0.250793
0.155341
0.0534347
-0.0507296
-0.15181
-0.245597
-0.327292
-0.393981
-0.442885
-0.474404
-0.49009
-0.496137
-0.499095
-0.509454
-0.580467
-0.521481
-0.634374
-1.99127
2.42487
0.471965
0.520181
0.571817
0.488122
0.483868
0.478573
0.46993
0.451487
0.418152
0.36945
0.305316
0.228509
0.141514
0.0487352
-0.0461173
-0.138117
-0.223545
-0.297932
-0.358696
-0.403087
-0.431495
-0.445023
-0.449449
-0.45164
-0.453959
-0.536651
-0.484617
-0.436616
-2.38891
2.83161
0.232744
0.499296
0.522455
0.432862
0.43816
0.433277
0.426674
0.410536
0.380429
0.336253
0.277876
0.20801
0.128814
0.0444226
-0.0418902
-0.125547
-0.203268
-0.270856
-0.326039
-0.366068
-0.391331
-0.402519
-0.404765
-0.406353
-0.39894
-0.487402
-0.463744
-0.19744
-2.79571
3.23775
-0.0396088
0.496685
0.466332
0.379572
0.394738
0.390067
0.385982
0.372239
0.345356
0.305537
0.252574
0.189159
0.117151
0.0404658
-0.0380163
-0.11401
-0.18463
-0.245905
-0.295852
-0.331696
-0.35384
-0.362616
-0.362214
-0.363398
-0.345927
-0.431415
-0.461153
0.0748809
-3.2019
3.63381
-0.335364
0.512865
0.402494
0.329804
0.353559
0.349061
0.347858
0.336513
0.312804
0.277152
0.22926
0.171832
0.106444
0.0368363
-0.0344665
-0.103422
-0.167506
-0.222927
-0.26798
-0.299841
-0.318934
-0.325317
-0.321918
-0.322738
-0.296477
-0.367742
-0.477367
0.370614
-3.59803
4.01108
-0.64408
0.546664
0.330552
0.285
0.314406
0.310387
0.312266
0.303267
0.282647
0.250954
0.207795
0.155915
0.096617
0.0335087
-0.0312146
-0.0937075
-0.15178
-0.201782
-0.242279
-0.270372
-0.286519
-0.290587
-0.284007
-0.284163
-0.252041
-0.296002
-0.511223
0.679312
-3.97535
4.362
-0.955342
0.595475
0.250814
0.246366
0.276938
0.274186
0.279139
0.272406
0.254757
0.226808
0.18805
0.141303
0.0876018
0.0304593
-0.0282365
-0.0847986
-0.137349
-0.18234
-0.218608
-0.243158
-0.256498
-0.258355
-0.248625
-0.247335
-0.213832
-0.216509
-0.560122
0.990557
-4.32633
4.68046
-1.25943
0.655631
0.164312
0.214758
0.240754
0.24061
0.248373
0.243835
0.229009
0.204583
0.169903
0.127899
0.0793357
0.0276668
-0.0255104
-0.0766318
-0.124115
-0.164478
-0.196838
-0.21807
-0.228769
-0.228514
-0.215922
-0.211857
-0.182712
-0.130302
-0.620404
1.29462
-4.64486
4.96195
-1.54783
0.722839
0.0727388
0.190601
0.205455
0.209812
0.219836
0.217465
0.205279
0.184158
0.153242
0.115614
0.071761
0.0251115
-0.0230164
-0.0691491
-0.111987
-0.148084
-0.176845
-0.194979
-0.203237
-0.200928
-0.186051
-0.177334
-0.159115
-0.0390811
-0.687786
1.58298
-4.92641
5.20353
-1.81364
0.792628
-0.0216954
0.173863
0.170712
0.181927
0.193374
0.193207
0.183445
0.165418
0.137961
0.104366
0.0648247
0.0227755
-0.0207362
-0.0622973
-0.100884
-0.133051
-0.158511
-0.173759
-0.179808
-0.175435
-0.159143
-0.143439
-0.143013
0.0549352
-0.757807
1.84871
-5.16807
5.4038
-2.0517
0.860756
-0.116462
0.164068
0.136312
0.157058
0.16882
0.170981
0.163385
0.148255
0.123962
0.0940778
0.0584778
0.0206422
-0.0186531
-0.0560275
-0.0907299
-0.119281
-0.141728
-0.154285
-0.158394
-0.151861
-0.135296
-0.109958
-0.133936
0.149211
-0.826234
2.08666
-5.36844
5.56268
-2.25865
0.923532
-0.208938
0.160357
0.102191
0.135249
0.146002
0.150709
0.144981
0.132568
0.11115
0.0846793
0.0526755
0.0186964
-0.0167517
-0.0502947
-0.0814536
-0.10668
-0.126392
-0.136434
-0.13891
-0.130025
-0.114549
-0.0768245
-0.13103
0.241117
-0.889383
2.29345
-5.52743
5.68119
-2.43278
0.978032
-0.296622
0.161585
0.068442
0.116479
0.124757
0.132313
0.128117
0.118261
0.0994403
0.0761049
0.0473759
0.0169241
-0.0150179
-0.0450573
-0.0729901
-0.0951619
-0.112408
-0.120088
-0.121273
-0.109756
-0.0968704
-0.044127
-0.133149
0.328147
-0.944339
2.46735
-5.64609
5.76121
-2.57382
1.0222
-0.377327
0.166434
0.0353041
0.100649
0.10494
0.115719
0.112681
0.105243
0.0887503
0.0682938
0.0425407
0.0153123
-0.0134388
-0.0402768
-0.065279
-0.0846461
-0.0996864
-0.105132
-0.105401
-0.0908967
-0.0821514
-0.0120986
-0.138978
0.408107
-0.98906
2.6081
-5.72632
5.80527
-2.68268
1.05488
-0.449307
0.173537
0.00313563
0.08758
0.0864279
0.100845
0.0985661
0.09343
0.0790037
0.0611897
0.038134
0.013849
-0.0120024
-0.0359177
-0.0582644
-0.0750567
-0.0881418
-0.091458
-0.0912078
-0.0733167
-0.0702022
0.0189117
-0.147144
0.47925
-1.02238
2.71658
-5.77064
5.81627
-2.76112
1.07567
-0.511346
0.181588
-0.0276294
0.0770234
0.0691303
0.0876054
0.0856702
0.0827414
0.070129
0.05474
0.034123
0.0125229
-0.0106976
-0.0319473
-0.0518943
-0.0663231
-0.0776949
-0.0789641
-0.0786029
-0.0569148
-0.0607614
0.0484813
-0.156337
0.540358
-1.04392
2.79455
-5.78198
5.79736
-2.81148
1.08489
-0.562769
0.189431
-0.0565277
0.0686731
0.0529867
0.0759063
0.0738997
0.0731003
0.0620593
0.0488958
0.0304768
0.0113238
-0.0095142
-0.028335
-0.0461202
-0.0583794
-0.0682705
-0.0675563
-0.0674892
-0.0416217
-0.0535096
0.0761603
-0.165392
0.590759
-1.05399
2.84435
-5.76348
5.75176
-2.83648
1.08331
-0.603414
0.196127
-0.0831139
0.0621847
0.0379663
0.0656448
0.0631681
0.0644335
0.0547323
0.0436113
0.0271673
0.010242
-0.00844267
-0.0250529
-0.0408969
-0.0511643
-0.0597966
-0.0571492
-0.0577616
-0.027399
-0.0480895
0.101518
-0.173359
0.630295
-1.05338
2.86868
-5.71839
5.68267
-2.83896
1.07209
-0.633562
0.200988
-0.107001
0.057197
0.0240631
0.0567098
0.0533977
0.0566702
0.04809
0.0388439
0.0241679
0.00926838
-0.00747419
-0.0220748
-0.0361824
-0.0446211
-0.0522046
-0.0476666
-0.0493083
-0.0142345
-0.0441274
0.124184
-0.179534
0.659256
-1.04322
2.87038
-5.64992
5.59321
-2.82179
1.05253
-0.653846
0.203577
-0.127891
0.0533534
0.0112891
0.0489827
0.044519
0.0497422
0.0420788
0.0345535
0.0214543
0.00839451
-0.00660054
-0.0193767
-0.031937
-0.0386971
-0.045428
-0.0390417
-0.0420113
-0.00213605
-0.0412552
0.143877
-0.183464
0.678284
-1.02484
2.85232
-5.56118
5.48634
-2.78773
1.02604
-0.665146
0.203698
-0.145595
0.0503211
-0.000333193
0.0423401
0.036471
0.0435834
0.0366492
0.0307024
0.0190039
0.00761246
-0.00581403
-0.0169362
-0.0281239
-0.0333441
-0.0394028
-0.031216
-0.035749
0.00887649
-0.0391306
0.160422
-0.184934
0.688277
-0.999608
2.81727
-5.45515
5.36486
-2.73943
0.99398
-0.668498
0.201356
-0.160037
0.0478063
-0.0107795
0.0366563
0.0292001
0.0381295
0.0317556
0.0272555
0.0167959
0.00691478
-0.00510748
-0.0147329
-0.0247082
-0.0285173
-0.0340668
-0.0241392
-0.0303987
0.0187793
-0.0374523
0.17376
-0.183929
0.690285
-0.968892
2.76788
-5.33462
5.23136
-2.67932
0.957641
-0.665002
0.196715
-0.171253
0.0455645
-0.0200311
0.0318071
0.0226594
0.0333187
0.0273561
0.0241794
0.0148107
0.00629445
-0.00447416
-0.0127477
-0.021657
-0.024176
-0.02936
-0.0177676
-0.0258398
0.0275521
-0.0359711
0.183938
-0.180596
0.68543
-0.933959
2.70659
-5.20219
5.08822
-2.60966
0.918186
-0.655761
0.190054
-0.179374
0.0434059
-0.0280804
0.0276731
0.0168076
0.0290912
0.0234124
0.0214429
0.0130307
0.00574488
-0.00390778
-0.0109631
-0.0189398
-0.0202826
-0.0252243
-0.012063
-0.0219571
0.0351845
-0.0344946
0.1911
-0.175193
0.674834
-0.895954
2.63566
-5.06022
4.9376
-2.53246
0.876641
-0.641826
0.181719
-0.184612
0.0411956
-0.0349361
0.0241422
0.011607
0.0253897
0.0198894
0.0190164
0.0114392
0.00525982
-0.00340238
-0.00936295
-0.0165273
-0.0168028
-0.0216041
-0.00699112
-0.0186434
0.0416804
-0.0328881
0.195463
-0.16805
0.659569
-0.855885
2.55713
-4.91088
4.78143
-2.44955
0.833896
-0.624165
0.172086
-0.187237
0.0388496
-0.0406244
0.0211128
0.00702305
0.0221597
0.0167548
0.0168723
0.0100211
0.00483342
-0.00295242
-0.00793232
-0.0143924
-0.0137051
-0.0184464
-0.00252004
-0.0158016
0.0470608
-0.0310702
0.197302
-0.159529
0.640624
-0.814618
2.47285
-4.75606
4.62141
-2.36254
0.790704
-0.603647
0.16153
-0.187555
0.0363288
-0.0451904
0.0184952
0.00302251
0.0193501
0.013979
0.0149846
0.00876217
0.00446018
-0.0025527
-0.00665748
-0.0125095
-0.0109604
-0.015701
0.00138079
-0.0133466
0.0513643
-0.0290064
0.196924
-0.149996
0.618884
-0.772885
2.38444
-4.59745
4.45901
-2.27283
0.747695
-0.581033
0.150407
-0.18589
0.0336303
-0.048696
0.0162126
-0.000427285
0.016913
0.0115345
0.0133289
0.00764949
0.00413492
-0.00219835
-0.00552573
-0.0108546
-0.00854193
-0.0133213
0.00474184
-0.0112059
0.0546465
-0.0266999
0.194651
-0.139799
0.595126
-0.731292
2.29332
-4.43652
4.29551
-2.18161
0.705381
-0.556974
0.139031
-0.182567
0.0307786
-0.0512177
0.0142015
-0.00335927
0.0148046
0.00939601
0.0118826
0.00667101
0.00385281
-0.00188483
-0.0045254
-0.00940539
-0.00642467
-0.011264
0.00759414
-0.00931966
0.0569776
-0.0241825
0.190802
-0.12925
0.570013
-0.690333
2.20072
-4.2745
4.13195
-2.08989
0.664173
-0.532022
0.127674
-0.177896
0.0278166
-0.0528433
0.012411
-0.00580719
0.0129846
0.00753969
0.0106245
0.0058156
0.00360932
-0.00160792
-0.00364566
-0.00814108
-0.00458532
-0.00948975
0.00996995
-0.0076403
0.0584394
-0.0215048
0.185682
-0.118621
0.544104
-0.650402
2.10766
-4.11243
3.96921
-1.99852
0.624385
-0.506633
0.116559
-0.172169
0.0247982
-0.0536681
0.0108018
-0.00780569
0.0114171
0.00594323
0.00953506
0.00507294
0.00340028
-0.0013637
-0.0028765
-0.00704252
-0.00300196
-0.00796305
0.0119027
-0.00613126
0.0591218
-0.0187283
0.179573
-0.10814
0.517858
-0.611801
2.015
-3.95114
3.80797
-1.90815
0.586251
-0.481182
0.10586
-0.165645
0.021781
-0.0537911
0.00934484
-0.0093904
0.01007
0.00458551
0.00859647
0.00443347
0.00322181
-0.0011486
-0.00220866
-0.00609211
-0.00165383
-0.00665226
0.0134271
-0.00476563
0.0591193
-0.015918
0.172726
-0.0979883
0.491648
-0.574754
1.92342
-3.79132
3.6488
-1.81931
0.549929
-0.455965
0.0957082
-0.158556
0.0188212
-0.0533116
0.00801983
-0.0105977
0.00891514
0.0034465
0.00779227
0.00388829
0.00307036
-0.000959315
-0.00163353
-0.00527376
-0.000521262
-0.00552961
0.0145788
-0.00352468
0.0585273
-0.013137
0.165363
-0.0883052
0.465769
-0.539415
1.83345
-3.6335
3.4921
-1.7324
0.515513
-0.431216
0.086195
-0.151098
0.0159703
-0.0523262
0.00681309
-0.0114643
0.00792796
0.00250716
0.00710759
0.00342914
0.00294271
-0.000792888
-0.00114311
-0.00457287
0.000414492
-0.00457089
0.015394
-0.00239595
0.0574393
-0.0104424
0.157671
-0.0791917
0.440445
-0.505879
1.74551
-3.47806
3.33816
-1.6477
0.483044
-0.407112
0.0773774
-0.143436
0.0132718
-0.0509262
0.00571613
-0.0120266
0.00708742
0.00174933
0.00652903
0.00304831
0.00283593
-0.000646636
-0.000729962
-0.00397633
0.00117129
-0.00375532
0.0159088
-0.00137186
0.0559446
-0.0078828
0.149809
-0.0707148
0.415845
-0.474189
1.65988
-3.3253
3.18718
-1.5654
0.452517
-0.383782
0.0692836
-0.135707
0.0107604
-0.0491964
0.0047241
-0.0123207
0.00637559
0.00115573
0.00604456
0.00273865
0.00274743
-0.000518191
-0.000387188
-0.00347236
0.00176612
-0.00306524
0.0161588
-0.000448124
0.0541259
-0.00549661
0.141904
-0.0629125
0.392089
-0.444347
1.57674
-3.1754
3.03928
-1.48562
0.42389
-0.361314
0.0619182
-0.128019
0.00846116
-0.0472132
0.00383436
-0.0123811
0.00577728
0.000709987
0.00564352
0.00249351
0.0026749
-0.000405466
-0.000108352
-0.00305057
0.00221507
-0.0024857
0.0161784
0.000377469
0.0520586
-0.00331207
0.134061
-0.0557984
0.369254
-0.416318
1.49622
-3.02847
2.89451
-1.40839
0.397094
-0.339762
0.0552672
-0.120458
0.00639007
-0.0450444
0.00304545
-0.0122408
0.00527975
0.000396628
0.00531654
0.00230673
0.00261629
-0.000306607
0.000112462
-0.00270182
0.00253337
-0.00200425
0.0160003
0.00110608
0.0498096
-0.00134734
0.126358
-0.0493662
0.347384
-0.39004
1.41834
-2.88456
2.75284
-1.33371
0.372034
-0.319155
0.0493021
-0.113087
0.00455455
-0.0427489
0.00235633
-0.0119307
0.00487246
0.000201178
0.0050554
0.00217265
0.00256987
-0.000220074
0.000280744
-0.00241811
0.00273524
-0.00161055
0.0156554
0.00173856
0.0474376
0.000388549
0.118857
-0.0435938
0.326499
-0.36543
1.34309
-2.74367
2.61423
-1.26154
0.3486
-0.299495
0.0439835
-0.105955
0.00295448
-0.040377
0.00176569
-0.0114793
0.00454656
0.000110197
0.00485304
0.00208602
0.00253417
-0.000144564
0.000401533
-0.0021926
0.00283389
-0.00129601
0.0151717
0.00227603
0.0449923
0.00189461
0.111604
-0.0384473
0.306595
-0.342387
1.27041
-2.60574
2.47858
-1.19177
0.326672
-0.280772
0.0392641
-0.0990935
0.00158345
-0.0379707
0.00127174
-0.0109123
0.00429484
0.000111312
0.00470347
0.00204207
0.00250795
-7.90105e-05
0.000479433
-0.00201949
0.00284146
-0.00105366
0.0145748
0.00272014
0.0425156
0.00317651
0.104628
-0.0338836
0.287652
-0.320798
1.20021
-2.47068
2.34576
-1.12431
0.306121
-0.262959
0.0350913
-0.092525
0.000429976
-0.0355644
0.000871904
-0.0102525
0.00411141
0.000193322
0.00460162
0.00203653
0.00249023
-2.25565e-05
0.000518573
-0.0018939
0.00276896
-0.000877824
0.0138875
0.00307329
0.0400419
0.00424528
0.0979495
-0.0298531
0.26964
-0.30054
1.13236
-2.33839
2.21565
-1.05902
0.286812
-0.246019
0.0314095
-0.0862617
-0.000521278
-0.0331857
0.000562921
-0.0095199
0.00399147
0.000346251
0.00454337
0.00206555
0.00248024
2.544e-05
0.000522655
-0.00181186
0.00262618
-0.000763933
0.0131294
0.00333858
0.0375985
0.00511595
0.091581
-0.0263023
0.252518
-0.281487
1.06673
-2.20873
2.08807
-0.995749
0.26861
-0.229911
0.0281611
-0.0803088
-0.00128838
-0.0308558
0.000340951
-0.00873144
0.0039313
0.000561342
0.00452545
0.00212577
0.0024774
6.54417e-05
0.000494917
-0.00177025
0.00242169
-0.000708467
0.0123174
0.00351966
0.0352067
0.0058064
0.0855268
-0.0231753
0.236241
-0.263508
1.00317
-2.08154
1.96287
-0.934352
0.251381
-0.214589
0.0252883
-0.0746663
-0.00189107
-0.0285907
0.000201739
-0.00790113
0.00392809
0.000831145
0.00454533
0.00221431
0.00248133
9.77314e-05
0.000438132
-0.00176669
0.00216279
-0.000708823
0.0114652
0.0036206
0.0328824
0.00633624
0.0797866
-0.0204152
0.220759
-0.246472
0.941506
-1.95668
1.83987
-0.874669
0.234989
-0.200002
0.0227339
-0.0693303
-0.00234975
-0.0264017
0.000140913
-0.0070401
0.00397984
0.00114953
0.00460129
0.00232878
0.00249183
0.000122432
0.000354608
-0.00179956
0.00185547
-0.000763189
0.0105838
0.00364558
0.0306368
0.00672575
0.0743564
-0.0179654
0.206024
-0.230249
0.881584
-1.83398
1.71891
-0.816542
0.219306
-0.186105
0.0204421
-0.0642945
-0.00268476
-0.0242962
0.000154325
-0.00615678
0.00408547
0.00151165
0.00469231
0.00246725
0.00250886
0.000139522
0.000246195
-0.00186796
0.00150444
-0.000870657
0.00968145
0.00359855
0.0284769
0.0069952
0.0692298
-0.0157706
0.191984
-0.21471
0.823241
-1.71327
1.59982
-0.759823
0.204203
-0.172851
0.0183594
-0.0595508
-0.00291561
-0.0222777
0.0002383
-0.00525696
0.00424479
0.00191401
0.00481801
0.00262831
0.00253253
0.000148841
0.000114235
-0.00197159
0.00111311
-0.00103119
0.00876381
0.00348299
0.0264066
0.00716399
0.0643985
-0.0137775
0.178595
-0.199731
0.766323
-1.59439
1.48244
-0.704369
0.189563
-0.160199
0.0164349
-0.0550904
-0.00306033
-0.0203472
0.00038999
-0.0043439
0.00445844
0.00235444
0.00497874
0.00281103
0.00256308
0.00015009
-4.03829e-05
-0.00211086
0.000683538
-0.00124555
0.00783398
0.00330157
0.0244264
0.00725003
0.0598539
-0.0119354
0.165815
-0.185195
0.710687
-1.4772
1.36665
-0.65006
0.175271
-0.148116
0.0146215
-0.0509044
-0.00313487
-0.0185027
0.000607756
-0.00341854
0.00472808
0.00283204
0.00517549
0.00301496
0.00260093
0.000142846
-0.000217249
-0.00228685
0.000216557
-0.00151555
0.00689276
0.00305574
0.0225344
0.00726915
0.055587
-0.0101974
0.153608
-0.17099
0.656209
-1.36157
1.25232
-0.5968
0.161227
-0.136575
0.0128763
-0.0469848
-0.00315252
-0.0167403
0.000891414
-0.00247955
0.00505642
0.00334721
0.00540989
0.0032402
0.00264654
0.000126622
-0.000416488
-0.00250122
-0.000288307
-0.001844
0.00593871
0.00274554
0.0207264
0.00723451
0.0515897
-0.00852077
0.14195
-0.157015
0.602789
-1.24737
1.13939
-0.544528
0.147341
-0.125565
0.0111621
-0.0433244
-0.00312339
-0.0150535
0.00124257
-0.00152344
0.00544728
0.00390167
0.0056842
0.00348733
0.00270057
0.00010076
-0.000638672
-0.00275627
-0.000832824
-0.00223482
0.00496824
0.00236918
0.0189959
0.00715605
0.0478549
-0.00686847
0.130827
-0.143182
0.550369
-1.13456
1.02785
-0.49324
0.133546
-0.115087
0.00944788
-0.0399179
-0.00305384
-0.0134343
0.00166495
-0.000544678
0.00590569
0.00449834
0.00600143
0.00375738
0.00276378
6.45053e-05
-0.000884847
-0.00305501
-0.00141993
-0.00269311
0.00397572
0.00192278
0.0173347
0.00703993
0.044377
-0.00521005
0.120242
-0.129425
0.498942
-1.0231
0.917762
-0.443005
0.119795
-0.105164
0.00771122
-0.0367617
-0.0029458
-0.0118726
0.00216466
0.000464342
0.00643801
0.00514133
0.00636524
0.00405191
0.00283706
1.69961e-05
-0.00115654
-0.00340113
-0.00205379
-0.00322531
0.00295349
0.00140012
0.0157327
0.00688786
0.0411525
-0.00352338
0.110217
-0.1157
0.448575
-0.913088
0.809332
-0.393996
0.106081
-0.0958419
0.00593935
-0.0338542
-0.00279625
-0.0103563
0.00275046
0.00151315
0.00705199
0.0058361
0.00677993
0.00437296
0.0029214
-4.2739e-05
-0.0014558
-0.00379893
-0.00273984
-0.0038392
0.00189194
0.000792282
0.0141777
0.00669656
0.0381797
-0.00179633
0.100797
-0.101998
0.399445
-0.804709
0.70294
-0.346535
0.0924374
-0.0871954
0.00413137
-0.0311958
-0.00259652
-0.00887138
0.00343411
0.00261338
0.00775696
0.00658927
0.00725066
0.0047231
0.00301796
-0.000115802
-0.00178512
-0.00425354
-0.0034847
-0.00454417
0.00077941
8.73775e-05
0.0126555
0.00645706
0.0354589
-2.87147e-05
0.0920584
-0.0883579
0.351872
-0.698351
0.599241
-0.30115
0.0789597
-0.0793322
0.00230057
-0.0287884
-0.00233162
-0.00740126
0.00423059
0.00377861
0.00856385
0.0074086
0.00778329
0.00510534
0.00312798
-0.000203395
-0.00214749
-0.00477079
-0.00429614
-0.00535117
-0.000397726
-0.000729683
0.0111494
0.00615404
0.0329918
0.00176527
0.0841084
-0.0748747
0.306385
-0.59467
0.499292
-0.258646
0.0658174
-0.0723929
0.000476154
-0.0266342
-0.00198074
-0.00592822
0.00515687
0.00502293
0.00948396
0.00830207
0.00838357
0.00552269
0.0032527
-0.000306684
-0.00254585
-0.0053564
-0.00518208
-0.00627151
-0.00165357
-0.00167598
0.00964176
0.00576633
0.0307808
0.00355539
0.0770885
-0.0617216
0.263794
-0.494724
0.404673
-0.220103
0.0532204
-0.0665251
-0.00130875
-0.0247291
-0.00152141
-0.0044316
0.00623026
0.00636163
0.0105286
0.00927805
0.00905729
0.00597841
0.00339325
-0.00042675
-0.0029834
-0.00601612
-0.0061509
-0.00731647
-0.00300341
-0.0027689
0.00811175
0.00527116
0.0288214
0.00530748
0.0711468
-0.0491111
0.225178
-0.400095
0.317486
-0.186882
0.0412435
-0.0618341
-0.00305109
-0.0230384
-0.000921053
-0.00286299
0.00748956
0.00783508
0.0117292
0.0103633
0.00982304
0.00648431
0.00355332
-0.000567041
-0.00347175
-0.0067684
-0.00722928
-0.00851767
-0.00448783
-0.00404755
0.00651048
0.00463531
0.0270783
0.00701723
0.066388
-0.0371208
0.191904
-0.312885
0.241673
-0.162478
0.0304439
-0.0587265
-0.00459699
-0.0215639
-5.18552e-05
-0.00113763
0.00904902
0.00952994
0.0131709
0.0116184
0.0107289
0.00706673
0.00374355
-0.000737535
-0.00403671
-0.00766099
-0.00847778
-0.00996045
-0.00619422
-0.0056276
0.00475156
0.00372829
0.0255508
0.00852653
0.0632178
-0.0263143
0.167474
-0.237036
0.190414
-0.157633
0.0265961
-0.0594311
-0.00461611
-0.0209089
0.00129971
0.000409643
0.0107996
0.011171
0.0146794
0.0128388
0.0116494
0.0076264
0.0039417
-0.000917854
-0.00458057
-0.00856992
-0.00969245
-0.0114713
-0.00784625
-0.00739997
0.00317378
0.00233582
0.024851
0.00849799
0.0638805
-0.022487
0.162638
-0.18574
0.00162835
-0.069689
-0.0265306
0.249292
0.601841
0.90946
1.17356
1.41111
1.60622
1.7174
1.70264
1.53789
1.225
0.789062
0.27312
-0.269788
-0.78292
-1.21363
-1.51977
-1.67755
-1.68646
-1.57132
-1.37413
-1.13583
-0.871615
-0.563989
-0.211365
0.0645216
0.107674
0.0363482
-0.0118237
-0.0804591
0.0296547
0.353069
0.692351
0.964369
1.19513
1.39972
1.55933
1.6368
1.59843
1.42717
1.12754
0.722602
0.249687
-0.246034
-0.716378
-1.11649
-1.40976
-1.57428
-1.60677
-1.52511
-1.36313
-1.15756
-0.926559
-0.654518
-0.315166
0.00832685
0.118448
0.0498015
-0.0287488
-0.0779232
0.103244
0.452635
0.763052
0.99773
1.19633
1.36849
1.49448
1.54238
1.48573
1.31281
1.0296
0.656848
0.226656
-0.222723
-0.650562
-1.01886
-1.29608
-1.4625
-1.51327
-1.46099
-1.33235
-1.15896
-0.959983
-0.725241
-0.414757
-0.0652763
0.115916
0.0667309
-0.0484048
-0.0590543
0.190012
0.544626
0.81797
1.01772
1.18734
1.33055
1.42803
1.45247
1.38292
1.21124
0.944077
0.599983
0.206813
-0.20269
-0.59369
-0.933636
-1.19516
-1.36055
-1.42424
-1.39524
-1.29487
-1.1502
-0.98006
-0.780193
-0.506781
-0.152067
0.097046
0.0863921
-0.069138
-0.0209383
0.287853
0.628998
0.860708
1.02793
1.17063
1.28739
1.36004
1.36526
1.28635
1.11778
0.866383
0.548714
0.188972
-0.184722
-0.542455
-0.856254
-1.1023
-1.2648
-1.33787
-1.32797
-1.25219
-1.13376
-0.990378
-0.822977
-0.591194
-0.249941
0.0589214
0.107129
-0.0878891
0.0387418
0.392122
0.702523
0.891231
1.02879
1.14654
1.2393
1.29047
1.28003
1.19466
1.03067
0.79483
0.501824
0.172698
-0.168368
-0.495627
-0.78501
-1.01578
-1.17388
-1.25347
-1.25911
-1.2046
-1.10996
-0.991376
-0.85356
-0.664767
-0.354255
-0.000778651
0.125878
-0.100403
0.120576
0.496829
0.762274
0.90973
1.02084
1.11571
1.18714
1.22011
1.19726
1.10791
0.949665
0.729032
0.458987
0.157867
-0.153495
-0.452875
-0.719519
-0.935338
-1.08789
-1.1715
-1.18945
-1.15296
-1.07944
-0.983579
-0.87213
-0.724572
-0.459018
-0.0826464
0.138381
-0.101424
0.223005
0.595621
0.806632
0.917072
1.00486
1.07902
1.13189
1.14975
1.11738
1.02612
0.874478
0.668575
0.419865
0.144352
-0.13997
-0.413856
-0.659368
-0.860689
-1.00682
-1.09239
-1.11978
-1.09822
-1.04307
-0.96777
-0.87955
-0.768987
-0.557872
-0.185121
0.139382
-0.084956
0.342186
0.682392
0.835213
0.914408
0.981663
1.03736
1.07444
1.08003
1.04063
0.94917
0.804722
0.613004
0.384103
0.132023
-0.127658
-0.378213
-0.6041
-0.791454
-0.930561
-1.0164
-1.05074
-1.0413
-1.00175
-0.944749
-0.876974
-0.797628
-0.644707
-0.304359
0.122882
-0.0446327
0.472059
0.751862
0.848734
0.902955
0.95202
0.991631
1.0156
1.01148
0.967194
0.876888
0.740031
0.561902
0.351382
0.120763
-0.116437
-0.345624
-0.5533
-0.727268
-0.858955
-0.943706
-0.982876
-0.982987
-0.956361
-0.915298
-0.865614
-0.811206
-0.714243
-0.434295
0.082516
0.0258185
0.604622
0.800123
0.848815
0.883861
0.916721
0.942721
0.956114
0.944542
0.897168
0.809106
0.68006
0.514894
0.321422
0.11047
-0.1062
-0.315806
-0.506592
-0.667791
-0.791832
-0.874413
-0.916617
-0.924032
-0.907809
-0.880201
-0.846618
-0.811343
-0.762565
-0.566926
0.0120141
0.132064
0.73044
0.825052
0.837699
0.858119
0.876567
0.891504
0.896618
0.879567
0.830616
0.745638
0.624489
0.47164
0.293972
0.101054
-0.0968546
-0.288505
-0.463636
-0.612702
-0.729012
-0.808586
-0.852326
-0.865081
-0.85696
-0.840259
-0.820979
-0.800281
-0.78755
-0.692813
-0.0942871
0.27865
0.839328
0.826553
0.817912
0.826525
0.832394
0.838801
0.837675
0.816841
0.76755
0.686292
0.573013
0.431832
0.268805
0.0924321
-0.0883154
-0.263495
-0.424123
-0.5617
-0.670303
-0.746242
-0.79029
-0.806695
-0.80464
-0.796308
-0.789493
-0.780546
-0.789099
-0.801767
-0.240932
0.468548
0.921147
0.806583
0.791907
0.789692
0.785078
0.785368
0.779757
0.756577
0.707948
0.630871
0.525349
0.395188
0.24572
0.0845334
-0.0805079
-0.24057
-0.387771
-0.514501
-0.615513
-0.687363
-0.730727
-0.749351
-0.751607
-0.749227
-0.752776
-0.754589
-0.76917
-0.883648
-0.430887
0.702786
0.966642
0.768964
0.761749
0.748115
0.735532
0.731873
0.723253
0.698934
0.651758
0.579179
0.481232
0.361452
0.224535
0.0772927
-0.0733652
-0.219548
-0.354323
-0.470842
-0.564444
-0.631897
-0.673797
-0.693442
-0.698532
-0.699931
-0.71132
-0.724479
-0.731584
-0.929199
-0.66518
0.980236
0.968234
0.718999
0.728879
0.702256
0.684686
0.678885
0.668481
0.644019
0.598906
0.531021
0.440416
0.330391
0.205086
0.0706521
-0.0668275
-0.200263
-0.323546
-0.430474
-0.516905
-0.579774
-0.61961
-0.639289
-0.645988
-0.649353
-0.665593
-0.691658
-0.681645
-0.930842
-0.942681
1.29756
0.920675
0.662932
0.693985
0.652653
0.63345
0.626868
0.615695
0.591893
0.549298
0.486207
0.402669
0.301794
0.187227
0.0645596
-0.0608409
-0.182567
-0.295227
-0.393168
-0.472703
-0.5309
-0.568233
-0.587149
-0.594444
-0.598408
-0.616135
-0.656816
-0.625597
-0.883326
-1.26005
1.64933
0.82151
0.607327
0.656985
0.600007
0.58267
0.576182
0.565093
0.542585
0.502831
0.444551
0.367778
0.275466
0.170823
0.0589685
-0.0553574
-0.166325
-0.269172
-0.358707
-0.431653
-0.485171
-0.519693
-0.537225
-0.544265
-0.547945
-0.56365
-0.619873
-0.570005
-0.784198
-1.61187
2.02833
0.671287
0.558422
0.617138
0.545244
0.533074
0.527101
0.516827
0.496087
0.459387
0.405873
0.335544
0.251232
0.155755
0.0538366
-0.0503336
-0.151416
-0.245202
-0.326892
-0.393575
-0.442471
-0.473986