/*--------------------------------*- C++ -*----------------------------------*\
| =========                 |                                                 |
| \\      /  F ield         | OpenFOAM: The Open Source CFD Toolbox           |
|  \\    /   O peration     | Version:  5.x                                   |
|   \\  /    A nd           | Web:      www.OpenFOAM.org                      |
|    \\/     M anipulation  |                                                 |
\*---------------------------------------------------------------------------*/
FoamFile
{
    version     2.0;
    format      ascii;
    class       surfaceScalarField;
    location    "0.02";
    object      phi;
}
// * * * * * * * * * * * * * * * * * * * * * * * * * * * * * * * * * * * * * //

dimensions      [0 3 -1 0 0 0 0];

internalField   nonuniform List<scalar> 
14230
(
4.78442e-16
-2.11048e-16
-1.44422e-15
1.92267e-15
-1.1339e-14
9.89477e-15
-2.32639e-14
1.1925e-14
-2.324e-14
-2.37491e-17
6.61152e-15
-2.98513e-14
8.67328e-14
-8.01209e-14
2.36824e-13
-1.50091e-13
4.68205e-13
-2.3138e-13
7.74572e-13
-3.06367e-13
1.12805e-12
-3.53477e-13
1.48323e-12
-3.55176e-13
1.78728e-12
-3.04058e-13
1.99189e-12
-2.04601e-13
2.06359e-12
-7.17002e-14
1.99057e-12
7.30177e-14
1.78499e-12
2.05575e-13
1.48052e-12
3.0447e-13
1.12552e-12
3.55007e-13
7.72623e-13
3.52895e-13
4.66981e-13
3.05643e-13
2.36219e-13
2.30761e-13
8.65135e-14
1.49705e-13
6.5588e-15
7.99542e-14
-2.32508e-14
2.98092e-14
-2.32688e-14
1.77246e-17
-1.13384e-14
-1.19305e-14
-1.44253e-15
-9.89591e-15
4.78348e-16
-1.92084e-15
2.01752e-16
2.76597e-16
-3.7758e-17
5.04731e-16
-8.37967e-15
1.02646e-14
-2.99216e-14
3.14367e-14
-4.61922e-14
2.81957e-14
-1.49331e-14
-3.12827e-14
1.19003e-13
-1.63788e-13
4.10007e-13
-3.71124e-13
9.0083e-13
-6.40913e-13
1.6052e-12
-9.3575e-13
2.49026e-12
-1.19143e-12
3.47302e-12
-1.33623e-12
4.43384e-12
-1.31599e-12
5.24115e-12
-1.11137e-12
5.77816e-12
-7.41612e-13
5.96535e-12
-2.58885e-13
5.77482e-12
2.63541e-13
5.23528e-12
7.45116e-13
4.42678e-12
1.11298e-12
3.4662e-12
1.31559e-12
2.48477e-12
1.33432e-12
1.60151e-12
1.1889e-12
8.98813e-13
9.3346e-13
4.09149e-13
6.39369e-13
1.18736e-13
3.70366e-13
-1.4996e-14
1.6354e-13
-4.62104e-14
3.12319e-14
-2.99274e-14
-2.82136e-14
-8.37953e-15
-3.14438e-14
-3.86676e-17
-1.02617e-14
-5.1268e-16
6.75754e-16
-2.09888e-15
3.26472e-15
-1.99615e-14
2.81272e-14
-5.28629e-14
6.43382e-14
-5.84221e-14
3.3755e-14
4.0209e-14
-1.29914e-13
3.28575e-13
-4.52153e-13
8.82205e-13
-9.24755e-13
1.75163e-12
-1.51034e-12
2.93729e-12
-2.12141e-12
4.3704e-12
-2.62454e-12
5.91554e-12
-2.88136e-12
7.39388e-12
-2.79433e-12
8.61747e-12
-2.33496e-12
9.42373e-12
-1.54788e-12
9.70354e-12
-5.38689e-13
9.41886e-12
5.48221e-13
8.60881e-12
1.55517e-12
7.38327e-12
2.33852e-12
5.90501e-12
2.79385e-12
4.36159e-12
2.87774e-12
2.93105e-12
2.61944e-12
1.74796e-12
2.11655e-12
8.80469e-13
1.50685e-12
3.27947e-13
9.22888e-13
4.00359e-14
4.51451e-13
-5.84686e-14
1.29736e-13
-5.28774e-14
-3.38049e-14
-1.99628e-14
-6.43584e-14
-2.0996e-15
-2.81248e-14
-3.27094e-15
6.5864e-16
-6.75291e-15
9.83691e-15
-3.67918e-14
5.81661e-14
-7.39774e-14
1.01524e-13
-4.3085e-14
2.86274e-15
1.64996e-13
-3.37995e-13
6.5657e-13
-9.43727e-13
1.51701e-12
-1.78519e-12
2.79135e-12
-2.78468e-12
4.45498e-12
-3.78504e-12
6.39889e-12
-4.56846e-12
8.44113e-12
-4.9236e-12
1.03579e-11
-4.71114e-12
1.19233e-11
-3.90028e-12
1.2946e-11
-2.57063e-12
1.32996e-11
-8.92224e-13
1.294e-11
9.07771e-13
1.19125e-11
2.5827e-12
1.03445e-11
3.90649e-12
8.42744e-12
4.7109e-12
6.38703e-12
4.91815e-12
4.44618e-12
4.5603e-12
2.78584e-12
3.77689e-12
1.51417e-12
2.77852e-12
6.55424e-13
1.78164e-12
1.64638e-13
9.42237e-13
-4.31836e-14
3.37557e-13
-7.40074e-14
-2.98117e-15
-3.67967e-14
-1.01569e-13
-6.75287e-15
-5.81686e-14
-9.84112e-15
-1.82726e-16
-1.50472e-14
2.22075e-14
-5.73436e-14
1.00463e-13
-8.4531e-14
1.28711e-13
1.53821e-14
-9.70504e-14
3.76882e-13
-6.99494e-13
1.11699e-12
-1.68384e-12
2.32038e-12
-2.98857e-12
4.01526e-12
-4.47956e-12
6.1442e-12
-5.91398e-12
8.55782e-12
-6.98208e-12
1.10352e-11
-7.40099e-12
1.33206e-11
-6.9965e-12
1.51643e-11
-5.744e-12
1.63597e-11
-3.76604e-12
1.67714e-11
-1.30397e-12
1.63529e-11
1.32634e-12
1.51519e-11
3.78364e-12
1.33049e-11
5.75349e-12
1.10189e-11
6.9969e-12
8.54326e-12
7.39382e-12
6.13294e-12
6.97061e-12
4.00781e-12
5.90202e-12
2.31627e-12
4.47006e-12
1.11517e-12
2.98274e-12
3.76245e-13
1.68116e-12
1.51966e-14
6.98606e-13
-8.45865e-14
9.6802e-14
-5.73561e-14
-1.28799e-13
-1.50473e-14
-1.00477e-13
-2.22106e-14
-2.67786e-15
-2.7573e-14
4.20224e-14
-7.81559e-14
1.51046e-13
-7.3807e-14
1.24362e-13
1.32825e-13
-3.03682e-13
6.9196e-13
-1.25863e-12
1.72161e-12
-2.71349e-12
3.2961e-12
-4.56306e-12
5.41776e-12
-6.60123e-12
7.9922e-12
-8.48842e-12
1.08324e-11
-9.82225e-12
1.36868e-11
-1.02554e-11
1.62787e-11
-9.58848e-12
1.83467e-11
-7.81194e-12
1.9678e-11
-5.09741e-12
2.01351e-11
-1.76105e-12
1.96707e-11
1.79079e-12
1.83332e-11
5.12109e-12
1.62615e-11
7.82526e-12
1.36684e-11
9.58999e-12
1.08155e-11
1.02467e-11
7.97864e-12
9.80745e-12
5.40834e-12
8.47232e-12
3.29056e-12
6.58784e-12
1.71894e-12
4.55435e-12
6.90939e-13
2.70916e-12
1.32505e-13
1.25704e-12
-7.39033e-14
3.0321e-13
-7.81814e-14
-1.24521e-13
-2.75748e-14
-1.51084e-13
-4.20267e-14
-7.75876e-15
-4.40271e-14
6.98027e-14
-9.33924e-14
2.00411e-13
-2.8737e-14
5.97069e-14
3.25922e-13
-6.58341e-13
1.12558e-12
-2.05829e-12
2.48045e-12
-4.06835e-12
4.44606e-12
-6.52867e-12
6.99232e-12
-9.14749e-12
9.98685e-12
-1.1483e-11
1.32096e-11
-1.3045e-11
1.63868e-11
-1.34326e-11
1.92307e-11
-1.24323e-11
2.14765e-11
-1.00578e-11
2.2913e-11
-6.53393e-12
2.34048e-11
-2.25277e-12
2.29054e-11
2.29016e-12
2.14624e-11
6.56406e-12
1.92123e-11
1.00754e-11
1.63669e-11
1.24354e-11
1.31908e-11
1.34229e-11
9.97119e-12
1.3027e-11
6.98096e-12
1.14626e-11
4.43899e-12
9.1298e-12
2.47679e-12
6.51655e-12
1.12406e-12
4.0619e-12
3.25406e-13
2.0557e-12
-2.88964e-14
6.57512e-13
-9.34385e-14
-5.99792e-14
-4.40335e-14
-2.00489e-13
-6.98127e-14
-1.62475e-14
-6.26813e-14
1.03953e-13
-9.44951e-14
2.32225e-13
6.58842e-14
-1.00672e-13
6.11728e-13
-1.20418e-12
1.692e-12
-3.13856e-12
3.40161e-12
-5.77796e-12
5.77033e-12
-8.8974e-12
8.73159e-12
-1.21088e-11
1.21165e-11
-1.48679e-11
1.56781e-11
-1.66066e-11
1.91281e-11
-1.68826e-11
2.21756e-11
-1.54798e-11
2.45596e-11
-1.24418e-11
2.60754e-11
-8.04975e-12
2.65929e-11
-2.77021e-12
2.60677e-11
2.81537e-12
2.45452e-11
8.08653e-12
2.21565e-11
1.2464e-11
1.91071e-11
1.54849e-11
1.56577e-11
1.68722e-11
1.2099e-11
1.65857e-11
8.71836e-12
1.48432e-11
5.76168e-12
1.20865e-11
3.39684e-12
8.88139e-12
1.68985e-12
5.76889e-12
6.10943e-13
3.1346e-12
6.56312e-14
1.20282e-12
-9.45725e-14
1.00224e-13
-6.26962e-14
-2.32365e-13
-1.03976e-13
-2.85334e-14
-7.98201e-14
1.39635e-13
-7.0014e-14
2.22419e-13
2.26953e-13
-3.97639e-13
1.00712e-12
-1.98435e-12
2.404e-12
-4.53544e-12
4.49124e-12
-7.8652e-12
7.26735e-12
-1.16735e-11
1.06277e-11
-1.54691e-11
1.43704e-11
-1.86106e-11
1.82278e-11
-2.0464e-11
2.19046e-11
-2.05594e-11
2.51132e-11
-1.86883e-11
2.76015e-11
-1.49302e-11
2.91749e-11
-9.62313e-12
2.97107e-11
-3.30596e-12
2.91672e-11
3.35883e-12
2.75871e-11
9.66663e-12
2.50939e-11
1.49573e-11
2.18829e-11
1.86959e-11
1.82062e-11
2.05489e-11
1.43513e-11
2.04406e-11
1.06127e-11
1.85818e-11
7.25709e-12
1.54421e-11
4.48526e-12
1.16532e-11
2.40111e-12
7.85303e-12
1.00598e-12
4.52974e-12
2.26567e-13
1.98224e-12
-7.01372e-14
3.96929e-13
-7.98492e-14
-2.22653e-13
-1.39681e-13
-4.41443e-14
-8.92122e-14
1.6762e-13
-5.62675e-15
1.38833e-13
4.72529e-13
-8.75795e-13
1.52833e-12
-3.04015e-12
3.27279e-12
-6.2799e-12
5.75361e-12
-1.0346e-11
8.93415e-12
-1.48541e-11
1.26723e-11
-1.92072e-11
1.67382e-11
-2.26765e-11
2.085e-11
-2.45758e-11
2.47116e-11
-2.44211e-11
2.80439e-11
-2.20206e-11
3.06076e-11
-1.74939e-11
3.22202e-11
-1.12358e-11
3.27681e-11
-3.85382e-12
3.22127e-11
3.91423e-12
3.05934e-11
1.1286e-11
2.80247e-11
1.75259e-11
2.46896e-11
2.20309e-11
2.08276e-11
2.44109e-11
1.67178e-11
2.45504e-11
1.26558e-11
2.26439e-11
8.92233e-12
1.91755e-11
5.74634e-12
1.48292e-11
3.26905e-12
1.03303e-11
1.52675e-12
6.27204e-12
4.71962e-13
3.03703e-12
-5.81526e-15
8.74706e-13
-8.9263e-14
-1.39206e-13
-1.67702e-13
-6.12419e-14
-8.16717e-14
1.73239e-13
1.15643e-13
-5.84818e-14
8.21261e-13
-1.58141e-12
2.19061e-12
-4.40951e-12
4.30785e-12
-8.39714e-12
7.1912e-12
-1.32294e-11
1.07667e-11
-1.84295e-11
1.48573e-11
-2.32978e-11
1.92106e-11
-2.70298e-11
2.35371e-11
-2.89023e-11
2.75454e-11
-2.84294e-11
3.09686e-11
-2.54438e-11
3.35827e-11
-2.01079e-11
3.52192e-11
-1.28724e-11
3.5774e-11
-4.40862e-12
3.5212e-11
4.47628e-12
3.35689e-11
1.2929e-11
3.09497e-11
2.01451e-11
2.75234e-11
2.54572e-11
2.35143e-11
2.842e-11
1.91893e-11
2.88755e-11
1.48394e-11
2.69938e-11
1.07534e-11
2.32616e-11
7.1826e-12
1.84e-11
4.30316e-12
1.32098e-11
2.1885e-12
8.3867e-12
8.20457e-13
4.40507e-12
1.15364e-13
1.5798e-12
-8.1754e-14
5.79128e-14
-1.73377e-13
-7.60791e-14
-4.47675e-14
1.35584e-13
3.13014e-13
-4.16263e-13
1.29179e-12
-2.56018e-12
3.00789e-12
-6.12561e-12
5.51688e-12
-1.09061e-11
8.80484e-12
-1.65173e-11
1.27599e-11
-2.23846e-11
1.71742e-11
-2.77121e-11
2.1779e-11
-3.16346e-11
2.62828e-11
-3.34061e-11
3.04031e-11
-3.25497e-11
3.38884e-11
-2.8929e-11
3.65316e-11
-2.27511e-11
3.8179e-11
-1.45198e-11
3.87364e-11
-4.96602e-12
3.81721e-11
5.04058e-12
3.65184e-11
1.45828e-11
3.38701e-11
2.27934e-11
3.03815e-11
2.89459e-11
2.62599e-11
3.25416e-11
2.17571e-11
3.33782e-11
1.71552e-11
3.15956e-11
1.27452e-11
2.76716e-11
8.79491e-12
2.23503e-11
5.51117e-12
1.64935e-11
3.00515e-12
1.08927e-11
1.29068e-12
6.11954e-12
3.12615e-13
2.55786e-12
-4.48938e-14
4.15421e-13
-1.35803e-13
-8.24679e-14
3.72723e-14
2.70691e-14
6.07365e-13
-9.86356e-13
1.90216e-12
-3.85498e-12
3.99254e-12
-8.21599e-12
6.90582e-12
-1.38194e-11
1.05939e-11
-2.02054e-11
1.49082e-11
-2.66989e-11
1.96153e-11
-3.24192e-11
2.44358e-11
-3.64551e-11
2.90814e-11
-3.80517e-11
3.32825e-11
-3.67508e-11
3.68046e-11
-3.24512e-11
3.94587e-11
-2.54052e-11
4.1106e-11
-1.61672e-11
4.16624e-11
-5.5224e-12
4.10996e-11
5.60342e-12
3.94462e-11
1.62361e-11
3.67872e-11
2.54525e-11
3.32615e-11
3.24715e-11
2.90588e-11
3.67443e-11
2.44135e-11
3.80235e-11
1.95954e-11
3.64138e-11
1.48923e-11
3.23747e-11
1.05827e-11
2.66599e-11
6.89903e-12
2.01771e-11
3.98909e-12
1.38027e-11
1.90069e-12
8.20795e-12
6.06809e-13
3.85174e-12
3.70867e-14
9.85144e-13
-2.74006e-14
-7.13155e-14
1.83429e-13
-1.86534e-13
1.02053e-12
-1.82345e-12
2.66934e-12
-5.50379e-12
5.15527e-12
-1.07019e-11
8.47884e-12
-1.7143e-11
1.25563e-11
-2.42829e-11
1.72054e-11
-3.1348e-11
2.21726e-11
-3.73864e-11
2.71739e-11
-4.14565e-11
3.19285e-11
-4.28062e-11
3.6182e-11
-4.10042e-11
3.97188e-11
-3.5988e-11
4.2368e-11
-2.80544e-11
4.40061e-11
-1.78053e-11
4.45584e-11
-6.07472e-12
4.40001e-11
6.16172e-12
4.23564e-11
1.78798e-11
3.97023e-11
2.81066e-11
3.61618e-11
3.6012e-11
3.19063e-11
4.09999e-11
2.71516e-11
4.27782e-11
2.21521e-11
4.14133e-11
1.71884e-11
3.73383e-11
1.25439e-11
3.13045e-11
8.47095e-12
2.42501e-11
5.15104e-12
1.71226e-11
2.66744e-12
1.06916e-11
1.01977e-12
5.4994e-12
1.83166e-13
1.82175e-12
1.86047e-13
-3.02815e-14
4.15526e-13
-5.4552e-13
1.5745e-12
-2.98243e-12
3.6088e-12
-7.53809e-12
6.50499e-12
-1.35981e-11
1.02384e-11
-2.08764e-11
1.46891e-11
-2.87335e-11
1.9645e-11
-3.63039e-11
2.48389e-11
-4.25803e-11
2.99871e-11
-4.66047e-11
3.48199e-11
-4.76391e-11
3.91005e-11
-4.52848e-11
4.26326e-11
-3.95201e-11
4.52635e-11
-3.06854e-11
4.68844e-11
-1.94261e-11
4.74301e-11
-6.62042e-12
4.68789e-11
6.71287e-12
4.52528e-11
1.95059e-11
4.26172e-11
3.07422e-11
3.90814e-11
3.95479e-11
3.47985e-11
4.52828e-11
2.9965e-11
4.76116e-11
2.4818e-11
4.65602e-11
1.96272e-11
4.25292e-11
1.46755e-11
3.62561e-11
1.02294e-11
2.86962e-11
6.49992e-12
2.08521e-11
3.60639e-12
1.35851e-11
1.57351e-12
7.53229e-12
4.15164e-13
2.98009e-12
5.44824e-13
5.63868e-14
7.57628e-13
-1.09513e-12
2.29067e-12
-4.51547e-12
4.73418e-12
-9.9816e-12
8.04883e-12
-1.69128e-11
1.21855e-11
-2.50131e-11
1.6988e-11
-3.35361e-11
2.22203e-11
-4.15362e-11
2.76071e-11
-4.79671e-11
3.28698e-11
-5.18673e-11
3.77525e-11
-5.25218e-11
4.20373e-11
-4.95696e-11
4.55476e-11
-4.30304e-11
4.81487e-11
-3.32864e-11
4.97457e-11
-2.10232e-11
5.02826e-11
-7.15733e-12
4.97408e-11
7.2547e-12
4.8139e-11
2.11077e-11
4.55335e-11
3.33476e-11
4.20195e-11
4.30619e-11
3.77321e-11
4.95702e-11
3.28482e-11
5.24955e-11
2.75862e-11
5.18222e-11
2.22019e-11
4.79135e-11
1.69735e-11
4.14845e-11
1.21755e-11
3.34942e-11
8.04289e-12
2.49847e-11
4.73121e-12
1.68968e-11
2.28939e-12
9.97411e-12
7.57143e-13
4.51234e-12
1.09416e-12
2.0781e-13
1.23526e-12
-1.88392e-12
3.18906e-12
-6.46927e-12
6.05713e-12
-1.28497e-11
9.79211e-12
-2.06478e-11
1.43195e-11
-2.95404e-11
1.94483e-11
-3.86649e-11
2.49247e-11
-4.70126e-11
3.0471e-11
-5.35134e-11
3.5817e-11
-5.72134e-11
4.07236e-11
-5.74284e-11
4.49921e-11
-5.38381e-11
4.84656e-11
-4.65039e-11
5.10268e-11
-3.58476e-11
5.25944e-11
-2.25907e-11
5.31207e-11
-7.68363e-12
5.259e-11
7.78537e-12
5.10181e-11
2.26796e-11
4.84528e-11
3.5913e-11
4.49756e-11
4.65391e-11
4.07042e-11
5.38416e-11
3.57962e-11
5.74036e-11
3.04502e-11
5.71681e-11
2.49059e-11
5.34578e-11
1.9433e-11
4.69575e-11
1.43084e-11
3.86188e-11
9.78528e-12
2.95078e-11
6.05354e-12
2.06285e-11
3.18744e-12
1.28402e-11
1.23463e-12
6.46514e-12
1.88259e-12
4.46198e-13
1.8745e-12
-2.96175e-12
4.28769e-12
-8.88246e-12
7.58723e-12
-1.61492e-11
1.17384e-11
-2.4799e-11
1.66384e-11
-3.44403e-11
2.20644e-11
-4.40909e-11
2.77515e-11
-5.26997e-11
3.34243e-11
-5.91861e-11
3.88245e-11
-6.26136e-11
4.37308e-11
-6.23347e-11
4.79646e-11
-5.80719e-11
5.13883e-11
-4.99276e-11
5.3901e-11
-3.83603e-11
5.54342e-11
-2.41239e-11
5.59484e-11
-8.19779e-12
5.54304e-11
8.30333e-12
5.38933e-11
2.42166e-11
5.13768e-11
3.84295e-11
4.79496e-11
4.99664e-11
4.37128e-11
5.80784e-11
3.88046e-11
6.23118e-11
3.3404e-11
6.25687e-11
2.77326e-11
5.91292e-11
2.20484e-11
5.26416e-11
1.66264e-11
4.40407e-11
1.17307e-11
3.44035e-11
7.58299e-12
2.47762e-11
4.2857e-12
1.61375e-11
1.87369e-12
8.87715e-12
2.95995e-12
7.96333e-13
2.70098e-12
-4.37744e-12
5.60216e-12
-1.17836e-11
9.33198e-12
-1.9879e-11
1.38897e-11
-2.93567e-11
1.9139e-11
-3.96897e-11
2.48304e-11
-4.97822e-11
3.06944e-11
-5.85637e-11
3.64615e-11
-6.49533e-11
4.18883e-11
-6.80404e-11
4.67723e-11
-6.72187e-11
5.0955e-11
-6.22546e-11
5.43172e-11
-5.32898e-11
5.67739e-11
-4.08171e-11
5.82688e-11
-2.56188e-11
5.87695e-11
-8.69849e-12
5.82655e-11
8.80727e-12
5.67674e-11
2.57148e-11
5.43071e-11
4.08898e-11
5.09415e-11
5.3332e-11
4.67557e-11
6.22641e-11
4.18695e-11
6.7198e-11
3.64419e-11
6.79963e-11
3.06755e-11
6.48956e-11
2.4814e-11
5.85032e-11
1.91264e-11
4.97284e-11
1.38812e-11
3.96487e-11
9.32707e-12
2.93303e-11
5.59975e-12
1.98648e-11
2.69997e-12
1.17769e-11
4.37506e-12
1.28486e-12
3.73893e-12
-6.17647e-12
7.14527e-12
-1.519e-11
1.12969e-11
-2.40307e-11
1.62463e-11
-3.43061e-11
2.18173e-11
-4.52607e-11
2.77401e-11
-5.5705e-11
3.37469e-11
-6.45706e-11
3.95776e-11
-7.07839e-11
4.5005e-11
-7.34678e-11
4.98466e-11
-7.20603e-11
5.39633e-11
-6.63713e-11
5.72539e-11
-5.65804e-11
5.96483e-11
-4.32115e-11
6.11012e-11
-2.70716e-11
6.15873e-11
-9.18464e-12
6.10985e-11
9.29609e-12
5.96428e-11
2.71705e-11
5.72453e-11
4.32873e-11
5.39514e-11
5.66258e-11
4.98316e-11
6.63839e-11
4.49876e-11
7.20421e-11
3.95588e-11
7.34251e-11
3.37284e-11
7.0726e-11
2.77234e-11
6.45081e-11
2.1804e-11
5.56478e-11
1.62369e-11
4.52157e-11
1.12913e-11
3.4276e-11
7.14242e-12
2.40137e-11
3.73771e-12
1.51816e-11
6.17337e-12
1.9394e-12
5.01035e-12
-8.39864e-12
8.92695e-12
-1.91066e-11
1.34857e-11
-2.85894e-11
1.88069e-11
-3.96273e-11
2.4668e-11
-5.11218e-11
3.07871e-11
-6.1824e-11
3.69032e-11
-7.06868e-11
4.27677e-11
-7.66484e-11
4.81718e-11
-7.88719e-11
5.29525e-11
-7.6841e-11
5.699e-11
-7.04088e-11
6.02e-11
-5.97903e-11
6.25264e-11
-4.5538e-11
6.39344e-11
-2.84796e-11
6.4405e-11
-9.65527e-12
6.39323e-11
9.76885e-12
6.25219e-11
2.85809e-11
6.01928e-11
4.56165e-11
5.69798e-11
5.98389e-11
5.29392e-11
7.04245e-11
4.81558e-11
7.68255e-11
4.275e-11
7.88309e-11
3.68852e-11
7.65908e-11
3.07704e-11
7.06229e-11
2.46543e-11
6.1764e-11
1.87969e-11
5.10731e-11
1.34794e-11
3.95935e-11
8.92363e-12
2.85695e-11
5.00888e-12
1.90964e-11
8.39467e-12
2.78758e-12
6.53425e-12
-1.10761e-11
1.09543e-11
-2.35266e-11
1.59002e-11
-3.35353e-11
2.15691e-11
-4.52962e-11
2.76855e-11
-5.72382e-11
3.3965e-11
-6.81035e-11
4.01576e-11
-7.68793e-11
4.60277e-11
-8.25186e-11
5.1386e-11
-8.42301e-11
5.6089e-11
-8.15441e-11
6.00354e-11
-7.43552e-11
6.31569e-11
-6.29118e-11
6.54105e-11
-4.77916e-11
6.67709e-11
-2.984e-11
6.72252e-11
-1.01096e-11
6.67693e-11
1.02248e-11
6.5407e-11
2.99432e-11
6.31511e-11
4.78724e-11
6.00268e-11
6.29631e-11
5.60774e-11
7.43739e-11
5.13716e-11
8.15313e-11
4.60113e-11
8.41912e-11
4.01403e-11
8.24617e-11
3.39486e-11
7.68147e-11
2.76714e-11
6.80411e-11
2.15585e-11
5.7186e-11
1.58933e-11
4.52586e-11
1.09505e-11
3.35123e-11
6.53253e-12
2.35144e-11
1.10711e-11
3.85607e-12
8.32618e-12
-1.4232e-11
1.32317e-11
-2.84321e-11
1.85408e-11
-3.88444e-11
2.45289e-11
-5.12843e-11
3.08633e-11
-6.35726e-11
3.72676e-11
-7.45079e-11
4.35046e-11
-8.31164e-11
4.93537e-11
-8.83676e-11
5.46454e-11
-8.95218e-11
5.92554e-11
-8.61541e-11
6.31e-11
-7.81998e-11
6.61259e-11
-6.59377e-11
6.83024e-11
-4.99681e-11
6.96131e-11
-3.11507e-11
7.00504e-11
-1.05469e-11
6.9612e-11
1.06631e-11
6.83e-11
3.12552e-11
6.61215e-11
5.00509e-11
6.3093e-11
6.59915e-11
5.92455e-11
7.82214e-11
5.46326e-11
8.61443e-11
4.93386e-11
8.94852e-11
4.34883e-11
8.8312e-11
3.72515e-11
8.30514e-11
3.08491e-11
7.44436e-11
2.45178e-11
6.35173e-11
1.85334e-11
5.12431e-11
1.32274e-11
3.88183e-11
8.32421e-12
2.84176e-11
1.42257e-11
5.16961e-12
1.0398e-11
-1.78789e-11
1.57611e-11
-3.37952e-11
2.14063e-11
-4.44897e-11
2.76813e-11
-5.75593e-11
3.41947e-11
-7.0086e-11
4.06885e-11
-8.10017e-11
4.69392e-11
-8.93671e-11
5.27421e-11
-9.41705e-11
5.7948e-11
-9.47277e-11
6.2451e-11
-9.06572e-11
6.61842e-11
-8.1933e-11
6.91083e-11
-6.88619e-11
7.12041e-11
-5.20639e-11
7.2463e-11
-3.24096e-11
7.28827e-11
-1.09666e-11
7.24625e-11
1.10834e-11
7.12025e-11
3.25151e-11
6.91053e-11
5.21482e-11
6.61788e-11
6.8918e-11
6.24429e-11
8.19573e-11
5.79369e-11
9.06502e-11
5.27285e-11
9.46936e-11
4.6924e-11
9.41165e-11
4.06731e-11
8.93024e-11
3.41807e-11
8.0936e-11
2.76699e-11
7.0028e-11
2.13984e-11
5.75146e-11
1.57565e-11
4.44602e-11
1.03957e-11
3.37783e-11
1.78712e-11
6.75022e-12
1.27576e-11
-2.20191e-11
1.85426e-11
-3.95802e-11
2.44943e-11
-5.04414e-11
3.10203e-11
-6.40853e-11
3.7673e-11
-7.67387e-11
4.42219e-11
-8.75506e-11
5.04567e-11
-9.56018e-11
5.61897e-11
-9.99035e-11
6.1292e-11
-9.983e-11
6.56753e-11
-9.50405e-11
6.92884e-11
-8.55461e-11
7.21054e-11
-7.16788e-11
7.4117e-11
-5.40755e-11
7.53226e-11
-3.36152e-11
7.57242e-11
-1.13681e-11
7.53225e-11
1.14851e-11
7.41164e-11
3.37212e-11
7.21036e-11
5.4161e-11
6.92847e-11
7.17368e-11
6.5669e-11
8.5573e-11
6.12828e-11
9.50364e-11
5.61777e-11
9.97987e-11
5.04428e-11
9.98515e-11
4.42073e-11
9.55379e-11
3.76592e-11
8.74841e-11
3.10088e-11
7.66784e-11
2.4486e-11
6.40374e-11
1.85375e-11
5.04087e-11
1.27551e-11
3.95607e-11
2.20098e-11
8.6166e-12
1.54095e-11
-2.6644e-11
2.15742e-11
-4.57448e-11
2.78009e-11
-5.66682e-11
3.45391e-11
-7.08235e-11
4.12913e-11
-8.34908e-11
4.78619e-11
-9.41212e-11
5.40526e-11
-1.01792e-10
5.96937e-11
-1.05545e-10
6.46761e-11
-1.04812e-10
6.8928e-11
-9.92924e-11
7.24133e-11
-8.90313e-11
7.5118e-11
-7.43835e-11
7.70427e-11
-5.60002e-11
7.81935e-11
-3.4766e-11
7.85764e-11
-1.17511e-11
7.81938e-11
1.18677e-11
7.7043e-11
3.48721e-11
7.51175e-11
5.60865e-11
7.24111e-11
7.44432e-11
6.89234e-11
8.90607e-11
6.46686e-11
9.92913e-11
5.96834e-11
1.04784e-10
5.404e-11
1.05495e-10
4.78482e-11
1.0173e-10
4.12779e-11
9.40544e-11
3.45276e-11
8.34287e-11
2.77923e-11
7.07727e-11
2.15688e-11
5.66323e-11
1.54068e-11
4.57227e-11
2.66329e-11
1.07837e-11
1.83547e-11
-3.17353e-11
2.48526e-11
-5.22427e-11
3.13212e-11
-6.31368e-11
3.82303e-11
-7.77327e-11
4.50426e-11
-9.03031e-11
5.16031e-11
-1.00682e-10
5.77227e-11
-1.07912e-10
6.32514e-11
-1.11073e-10
6.80987e-11
-1.0966e-10
7.22087e-11
-1.03402e-10
7.55591e-11
-9.23817e-11
7.81473e-11
-7.69717e-11
7.99825e-11
-5.78355e-11
8.10772e-11
-3.58607e-11
8.14411e-11
-1.21151e-11
8.10779e-11
1.2231e-11
7.99836e-11
3.59664e-11
7.81479e-11
5.79222e-11
7.55584e-11
7.70327e-11
7.22059e-11
9.24132e-11
6.80931e-11
1.03404e-10
6.32428e-11
1.09634e-10
5.77117e-11
1.11026e-10
5.15905e-11
1.07851e-10
4.50299e-11
1.00615e-10
3.8219e-11
9.02396e-11
3.13124e-11
7.76793e-11
2.48469e-11
6.30978e-11
1.83518e-11
5.22178e-11
3.17222e-11
1.32625e-11
2.15913e-11
-3.72656e-11
2.83733e-11
-5.90247e-11
3.5049e-11
-6.98125e-11
4.20861e-11
-8.47698e-11
4.89204e-11
-9.71374e-11
5.54401e-11
-1.07201e-10
6.14634e-11
-1.13935e-10
6.68605e-11
-1.1647e-10
7.15589e-11
-1.14358e-10
7.55173e-11
-1.07361e-10
7.87265e-11
-9.55909e-11
8.11941e-11
-7.94393e-11
8.29376e-11
-5.9579e-11
8.3975e-11
-3.6898e-11
8.43196e-11
-1.24597e-11
8.39761e-11
1.25745e-11
8.29394e-11
3.70031e-11
8.11958e-11
5.96658e-11
7.87272e-11
7.95013e-11
7.55161e-11
9.56244e-11
7.1555e-11
1.07365e-10
6.68537e-11
1.14335e-10
6.14539e-11
1.16426e-10
5.54287e-11
1.13876e-10
4.89085e-11
1.07135e-10
4.20751e-11
9.70731e-11
3.50402e-11
8.47142e-11
2.83674e-11
6.97705e-11
2.15882e-11
5.8997e-11
3.72503e-11
1.60601e-11
2.51149e-11
-4.31999e-11
3.21307e-11
-6.60405e-11
3.89774e-11
-7.66591e-11
4.60983e-11
-9.18907e-11
5.29183e-11
-1.03957e-10
5.93679e-11
-1.13651e-10
6.52709e-11
-1.19838e-10
7.05188e-11
-1.21718e-10
7.50555e-11
-1.18895e-10
7.88535e-11
-1.11159e-10
8.19156e-11
-9.86531e-11
8.42592e-11
-8.17828e-11
8.59089e-11
-6.12287e-11
8.68881e-11
-3.78772e-11
8.72131e-11
-1.27847e-11
8.68896e-11
1.2898e-11
8.59115e-11
3.79812e-11
8.4262e-11
6.13152e-11
8.19177e-11
8.18456e-11
7.88539e-11
9.86883e-11
7.50533e-11
1.11166e-10
7.05138e-11
1.18875e-10
6.5263e-11
1.21677e-10
5.93579e-11
1.19781e-10
5.29074e-11
1.13586e-10
4.60878e-11
1.03893e-10
3.89687e-11
9.18333e-11
3.21248e-11
7.66144e-11
2.51118e-11
6.601e-11
4.31822e-11
1.91798e-11
2.89193e-11
-4.94967e-11
3.61184e-11
-7.32395e-11
4.30985e-11
-8.36392e-11
5.0259e-11
-9.90513e-11
5.70302e-11
-1.10729e-10
6.33819e-11
-1.20003e-10
6.91421e-11
-1.25599e-10
7.42245e-11
-1.26801e-10
7.85875e-11
-1.23258e-10
8.22171e-11
-1.14788e-10
8.51271e-11
-1.01563e-10
8.73434e-11
-8.39991e-11
8.88975e-11
-6.27829e-11
8.98175e-11
-3.87972e-11
9.01226e-11
-1.30898e-11
8.98194e-11
1.32013e-11
8.89007e-11
3.88998e-11
8.73471e-11
6.28688e-11
8.51304e-11
8.40623e-11
8.2219e-11
1.016e-10
7.85871e-11
1.14798e-10
7.42212e-11
1.23241e-10
6.91359e-11
1.26762e-10
6.33734e-11
1.25544e-10
5.70203e-11
1.19939e-10
5.02492e-11
1.10664e-10
4.309e-11
9.89924e-11
3.61124e-11
8.3592e-11
2.89161e-11
7.32064e-11
4.94766e-11
2.26217e-11
3.29965e-11
-5.61099e-11
4.0329e-11
-8.0572e-11
4.74038e-11
-9.0714e-11
5.45602e-11
-1.06208e-10
6.12502e-11
-1.17419e-10
6.74775e-11
-1.2623e-10
7.30739e-11
-1.31195e-10
7.79757e-11
-1.31702e-10
8.21543e-11
-1.27436e-10
8.5608e-11
-1.18242e-10
8.8361e-11
-1.04316e-10
9.04472e-11
-8.60853e-11
9.19042e-11
-6.42399e-11
9.27642e-11
-3.96573e-11
9.30492e-11
-1.33747e-11
9.27663e-11
1.34841e-11
9.1908e-11
3.97582e-11
9.04519e-11
6.43249e-11
8.83656e-11
8.61485e-11
8.56114e-11
1.04354e-10
8.21555e-11
1.18253e-10
7.79741e-11
1.27422e-10
7.30695e-11
1.31667e-10
6.74705e-11
1.31143e-10
6.12415e-11
1.26168e-10
5.45512e-11
1.17354e-10
4.73957e-11
1.06148e-10
4.03232e-11
9.06646e-11
3.29933e-11
8.05363e-11
5.60872e-11
2.63827e-11
3.73374e-11
-6.29896e-11
4.47549e-11
-8.79895e-11
5.18844e-11
-9.78435e-11
5.89943e-11
-1.13318e-10
6.55728e-11
-1.23997e-10
7.16505e-11
-1.32308e-10
7.70637e-11
-1.36608e-10
8.17708e-11
-1.3641e-10
8.5755e-11
-1.31421e-10
8.90261e-11
-1.21513e-10
9.16178e-11
-1.06908e-10
9.35712e-11
-8.80386e-11
9.49295e-11
-6.55983e-11
9.57289e-11
-4.04566e-11
9.59935e-11
-1.36393e-11
9.57313e-11
1.37462e-11
9.49339e-11
4.05556e-11
9.35767e-11
6.56821e-11
9.16235e-11
8.81017e-11
8.90309e-11
1.06947e-10
8.57578e-11
1.21527e-10
8.1771e-11
1.31409e-10
7.70609e-11
1.36377e-10
7.16451e-11
1.36558e-10
6.55654e-11
1.32247e-10
5.89862e-11
1.23933e-10
5.18769e-11
1.13257e-10
4.47492e-11
9.77922e-11
3.73342e-11
8.79512e-11
6.29643e-11
3.04571e-11
4.19321e-11
-7.00838e-11
4.93874e-11
-9.54448e-11
5.65313e-11
-1.04987e-10
6.35541e-11
-1.2034e-10
6.99929e-11
-1.30436e-10
7.5897e-11
-1.38212e-10
8.11088e-11
-1.4182e-10
8.56085e-11
-1.40909e-10
8.93889e-11
-1.35201e-10
9.24713e-11
-1.24596e-10
9.48977e-11
-1.09334e-10
9.67159e-11
-8.98568e-11
9.79742e-11
-6.68566e-11
9.87123e-11
-4.11947e-11
9.89562e-11
-1.38832e-11
9.87149e-11
1.39875e-11
9.79791e-11
4.12915e-11
9.67222e-11
6.6939e-11
9.49044e-11
8.99195e-11
9.24773e-11
1.09374e-10
8.93932e-11
1.24611e-10
8.56103e-11
1.35192e-10
8.11077e-11
1.40879e-10
7.58932e-11
1.41773e-10
6.99868e-11
1.38154e-10
6.3547e-11
1.30373e-10
5.65243e-11
1.2028e-10
4.9382e-11
1.04935e-10
4.1929e-11
9.54043e-11
7.00559e-11
3.48374e-11
4.67698e-11
-7.73392e-11
5.42176e-11
-1.02893e-10
6.13351e-11
-1.12105e-10
6.82326e-11
-1.27238e-10
7.45054e-11
-1.36709e-10
8.02133e-11
-1.4392e-10
8.52071e-11
-1.46814e-10
8.94873e-11
-1.4519e-10
9.30554e-11
-1.38769e-10
9.59434e-11
-1.27484e-10
9.82008e-11
-1.11591e-10
9.98816e-11
-9.15377e-11
1.01039e-10
-6.80137e-11
1.01715e-10
-4.18709e-11
1.01938e-10
-1.41064e-11
1.01718e-10
1.42079e-11
1.01044e-10
4.19652e-11
9.98886e-11
6.80945e-11
9.82084e-11
9.15997e-11
9.59506e-11
1.11631e-10
9.30611e-11
1.275e-10
8.94907e-11
1.38762e-10
8.52076e-11
1.45162e-10
8.0211e-11
1.4677e-10
7.45007e-11
1.43864e-10
6.82266e-11
1.36647e-10
6.13289e-11
1.27178e-10
5.42126e-11
1.12051e-10
4.67669e-11
1.0285e-10
7.73086e-11
3.95141e-11
5.18396e-11
-8.47021e-11
5.92362e-11
-1.10289e-10
6.62868e-11
-1.19156e-10
7.30235e-11
-1.33975e-10
7.91055e-11
-1.42791e-10
8.45959e-11
-1.4941e-10
8.93563e-11
-1.51574e-10
9.3406e-11
-1.49239e-10
9.67538e-11
-1.42117e-10
9.94422e-11
-1.30172e-10
1.01527e-10
-1.13677e-10
1.03069e-10
-9.30791e-11
1.04124e-10
-6.90685e-11
1.04737e-10
-4.24845e-11
1.04939e-10
-1.43087e-11
1.0474e-10
1.4407e-11
1.04129e-10
4.25762e-11
1.03076e-10
6.91474e-11
1.01536e-10
9.31402e-11
9.94505e-11
1.13717e-10
9.67608e-11
1.3019e-10
9.34109e-11
1.42112e-10
8.93584e-11
1.49215e-10
8.45952e-11
1.51533e-10
7.91023e-11
1.49357e-10
7.30187e-11
1.42731e-10
6.62815e-11
1.33915e-10
5.92317e-11
1.19101e-10
5.18369e-11
1.10245e-10
8.4669e-11
4.44766e-11
5.71302e-11
-9.21192e-11
6.44338e-11
-1.17593e-10
7.13778e-11
-1.261e-10
7.79209e-11
-1.40518e-10
8.37889e-11
-1.48659e-10
8.90416e-11
-1.54663e-10
9.35545e-11
-1.56087e-10
9.73634e-11
-1.53048e-10
1.00484e-10
-1.45237e-10
1.02968e-10
-1.32656e-10
1.04877e-10
-1.15586e-10
1.06277e-10
-9.44793e-11
1.07229e-10
-7.00199e-11
1.0778e-10
-4.30352e-11
1.07961e-10
-1.44898e-11
1.07783e-10
1.4585e-11
1.07235e-10
4.31241e-11
1.06286e-10
7.00966e-11
1.04887e-10
9.45393e-11
1.02977e-10
1.15626e-10
1.00492e-10
1.32675e-10
9.73696e-11
1.45235e-10
9.35582e-11
1.53026e-10
8.90424e-11
1.56049e-10
8.37871e-11
1.54612e-10
7.79172e-11
1.48601e-10
7.13733e-11
1.40459e-10
6.44299e-11
1.26044e-10
5.71278e-11
1.17547e-10
9.20836e-11
4.97132e-11
6.26302e-11
-9.95382e-11
6.98009e-11
-1.24764e-10
7.65997e-11
-1.32898e-10
8.2919e-11
-1.46837e-10
8.85513e-11
-1.54291e-10
9.35475e-11
-1.59659e-10
9.78e-11
-1.6034e-10
1.01358e-10
-1.56606e-10
1.04244e-10
-1.48123e-10
1.0652e-10
-1.34931e-10
1.08251e-10
-1.17317e-10
1.09508e-10
-9.57366e-11
1.10355e-10
-7.08669e-11
1.10842e-10
-4.35225e-11
1.11002e-10
-1.46497e-11
1.10846e-10
1.47415e-11
1.10361e-10
4.36083e-11
1.09517e-10
7.09414e-11
1.08261e-10
9.57952e-11
1.0653e-10
1.17357e-10
1.04254e-10
1.34951e-10
1.01366e-10
1.48122e-10
9.78051e-11
1.56587e-10
9.35498e-11
1.60304e-10
8.85509e-11
1.59611e-10
8.29166e-11
1.54235e-10
7.65961e-11
1.46779e-10
6.97976e-11
1.32843e-10
6.26281e-11
1.24716e-10
9.95003e-11
5.52114e-11
6.83281e-11
-1.06908e-10
7.53279e-11
-1.31763e-10
8.19446e-11
-1.39515e-10
8.80128e-11
-1.52905e-10
9.33886e-11
-1.59667e-10
9.81108e-11
-1.64381e-10
1.02091e-10
-1.6432e-10
1.0539e-10
-1.59905e-10
1.08036e-10
-1.50769e-10
1.10098e-10
-1.36993e-10
1.11648e-10
-1.18868e-10
1.12761e-10
-9.68492e-11
1.13502e-10
-7.16087e-11
1.13926e-10
-4.39458e-11
1.14064e-10
-1.47882e-11
1.13929e-10
1.48765e-11
1.13509e-10
4.40286e-11
1.1277e-10
7.16807e-11
1.11658e-10
9.69064e-11
1.10109e-10
1.18907e-10
1.08046e-10
1.37013e-10
1.05399e-10
1.5077e-10
1.02098e-10
1.59888e-10
9.81146e-11
1.64287e-10
9.33897e-11
1.64336e-10
8.80117e-11
1.59613e-10
8.19421e-11
1.52849e-10
7.53253e-11
1.39459e-10
6.83265e-11
1.31715e-10
1.06868e-10
6.09585e-11
7.42129e-11
-1.1418e-10
8.10057e-11
-1.38556e-10
8.74053e-11
-1.45915e-10
9.31974e-11
-1.58697e-10
9.82971e-11
-1.64767e-10
1.02729e-10
-1.68813e-10
1.06426e-10
-1.68017e-10
1.09457e-10
-1.62937e-10
1.11857e-10
-1.53168e-10
1.13702e-10
-1.38838e-10
1.15068e-10
-1.20234e-10
1.16035e-10
-9.78158e-11
1.16671e-10
-7.22443e-11
1.1703e-10
-4.43048e-11
1.17147e-10
-1.49051e-11
1.17033e-10
1.49899e-11
1.16677e-10
4.43844e-11
1.16044e-10
7.23138e-11
1.15079e-10
9.78714e-11
1.13713e-10
1.20273e-10
1.11868e-10
1.38859e-10
1.09467e-10
1.5317e-10
1.06434e-10
1.62921e-10
1.02734e-10
1.67986e-10
9.82996e-11
1.68771e-10
9.31975e-11
1.64715e-10
8.74038e-11
1.58643e-10
8.10038e-11
1.45859e-10
7.42117e-11
1.38507e-10
1.14138e-10
6.69414e-11
8.02736e-11
-1.21308e-10
8.68254e-11
-1.45108e-10
9.2975e-11
-1.52064e-10
9.84682e-11
-1.64191e-10
1.03273e-10
-1.69572e-10
1.074e-10
-1.7294e-10
1.10804e-10
-1.7142e-10
1.13559e-10
-1.65692e-10
1.15707e-10
-1.55316e-10
1.17331e-10
-1.40463e-10
1.18512e-10
-1.21415e-10
1.19332e-10
-9.8635e-11
1.1986e-10
-7.2773e-11
1.20155e-10
-4.45991e-11
1.2025e-10
-1.50004e-11
1.20158e-10
1.50815e-11
1.19867e-10
4.46754e-11
1.19341e-10
7.28399e-11
1.18524e-10
9.86887e-11
1.17344e-10
1.21453e-10
1.15719e-10
1.40484e-10
1.1357e-10
1.55319e-10
1.10812e-10
1.65679e-10
1.07407e-10
1.71392e-10
1.03277e-10
1.729e-10
9.84696e-11
1.69523e-10
9.29745e-11
1.64138e-10