/*--------------------------------*- C++ -*----------------------------------*\
| =========                 |                                                 |
| \\      /  F ield         | OpenFOAM: The Open Source CFD Toolbox           |
|  \\    /   O peration     | Version:  5.x                                   |
|   \\  /    A nd           | Web:      www.OpenFOAM.org                      |
|    \\/     M anipulation  |                                                 |
\*---------------------------------------------------------------------------*/
FoamFile
{
    version     2.0;
    format      ascii;
    class       volVectorField;
    location    "0.02";
    object      U;
}
// * * * * * * * * * * * * * * * * * * * * * * * * * * * * * * * * * * * * * //

dimensions      [0 1 -1 0 0 0 0];

internalField   nonuniform List<vector> 
7200
(
(3.27103e-07 4.4177e-07 0)
(1.63396e-06 2.52543e-06 1.58562e-23)
(-1.04466e-05 -2.21921e-05 -9.55346e-24)
(-4.74706e-05 -8.40757e-05 -2.93242e-24)
(-7.9182e-05 -0.000113857 3.79574e-22)
(-4.92956e-05 -4.26237e-05 -1.26663e-21)
(0.000102774 0.000151303 -1.5688e-23)
(0.00044435 0.000458785 1.74058e-23)
(0.00103574 0.000840245 3.00876e-21)
(0.00189678 0.00121883 -5.30725e-23)
(0.00297827 0.00149234 1.82422e-21)
(0.00415884 0.00156497 1.65446e-21)
(0.0052693 0.00138185 1.34033e-21)
(0.00613225 0.000949867 0)
(0.00660287 0.000338367 1.71957e-24)
(0.00660062 -0.000338117 0)
(0.00612612 -0.000948846 4.54648e-24)
(0.0052609 -0.00137968 5.09617e-23)
(0.00415018 -0.00156187 -1.60846e-21)
(0.00297104 -0.00148895 -6.82342e-23)
(0.00189185 -0.00121592 -2.56419e-23)
(0.00103307 -0.00083828 5.91224e-21)
(0.000443264 -0.000457795 -9.54797e-24)
(0.000102477 -0.000150957 -1.79473e-21)
(-4.93516e-05 4.27133e-05 -6.10244e-22)
(-7.92033e-05 0.000113896 -3.61133e-22)
(-4.74766e-05 8.40959e-05 0)
(-1.04411e-05 2.21915e-05 -9.66955e-24)
(1.63894e-06 -2.52814e-06 1.21018e-23)
(3.23858e-07 -4.42299e-07 -1.31099e-24)
(1.49254e-07 1.86359e-06 3.37459e-26)
(-3.46067e-06 -3.10812e-06 -1.2976e-23)
(-4.06492e-05 -0.000101474 -3.45901e-23)
(-0.000119675 -0.000265549 -5.54409e-24)
(-0.000142833 -0.000279288 -5.60229e-22)
(5.77356e-05 1.04812e-05 -6.27886e-23)
(0.000657022 0.000627286 1.95931e-23)
(0.00182682 0.0015205 -3.56114e-21)
(0.00369035 0.00256089 -1.54822e-22)
(0.00624642 0.00353464 2.31519e-21)
(0.00931926 0.00418396 -2.40289e-21)
(0.0125692 0.00428505 -2.46063e-21)
(0.0155595 0.00372323 -3.80934e-21)
(0.01785 0.00253395 -5.96209e-22)
(0.0190892 0.000898766 5.69499e-23)
(0.0190835 -0.000896812 5.12806e-23)
(0.0178344 -0.00253026 -5.85543e-22)
(0.0155377 -0.00371693 1.97306e-21)
(0.0125462 -0.00427655 1.84514e-22)
(0.00929936 -0.00417476 -2.57829e-21)
(0.00623209 -0.00352655 2.38553e-21)
(0.0036819 -0.00255517 -1.89958e-22)
(0.00182292 -0.00151737 -3.58069e-21)
(0.000655695 -0.000626033 2.71299e-21)
(5.74145e-05 -1.01052e-05 9.40925e-22)
(-0.000142914 0.00027943 1.12403e-21)
(-0.000119705 0.00026562 5.13991e-24)
(-4.06498e-05 0.000101481 -3.96042e-24)
(-3.45358e-06 3.10028e-06 -1.90008e-23)
(1.42622e-07 -1.86566e-06 2.21423e-25)
(-7.39763e-07 2.98222e-06 -1.72107e-24)
(-1.53773e-05 -2.37725e-05 5.42052e-26)
(-8.99378e-05 -0.000204467 -4.43273e-23)
(-0.00019569 -0.000420941 3.6497e-22)
(-0.000135193 -0.000336677 -7.10607e-22)
(0.000362016 0.000231681 2.09178e-21)
(0.00155928 0.00128478 0)
(0.00369687 0.00271533 3.66787e-21)
(0.00691118 0.00429979 -4.41239e-21)
(0.0111346 0.00570917 -2.41175e-21)
(0.016049 0.00657793 2.27254e-22)
(0.0211223 0.00660933 -1.81582e-23)
(0.0257106 0.00566817 1.83963e-21)
(0.0291853 0.00382651 6.0043e-22)
(0.0310531 0.00135254 -1.51576e-24)
(0.0310448 -0.00134776 -9.67452e-23)
(0.0291623 -0.00381962 5.92967e-22)
(0.0256782 -0.00565808 0)
(0.0210874 -0.00659654 4.33204e-21)
(0.0160177 -0.00656429 2.23739e-21)
(0.0111111 -0.00569703 -2.33416e-21)
(0.00689642 -0.00429091 -4.28838e-21)
(0.00368941 -0.00271018 -2.55027e-23)
(0.0015564 -0.00128251 1.39941e-21)
(0.000361195 -0.000230925 1.36809e-23)
(-0.000135396 0.000336946 -1.31094e-21)
(-0.000195754 0.00042107 0)
(-8.99471e-05 0.000204492 -1.58986e-23)
(-1.53713e-05 2.37608e-05 0)
(-7.4589e-07 -2.9863e-06 2.40934e-24)
(-3.64873e-06 2.64981e-06 1.90981e-24)
(-3.85213e-05 -6.10139e-05 0)
(-0.000152446 -0.000319239 8.10489e-23)
(-0.000242744 -0.000531641 7.08063e-23)
(-2.72499e-06 -0.000281434 7.28649e-22)
(0.000920374 0.000604069 -1.08134e-21)
(0.00285399 0.00208607 -2.3715e-23)
(0.00607185 0.00399053 -3.46024e-21)
(0.0106806 0.00600432 0)
(0.0165157 0.00770994 -3.39324e-23)
(0.0231152 0.00867512 2.32457e-21)
(0.0297852 0.00857053 -1.94004e-21)
(0.0357267 0.00726527 1.44661e-23)
(0.0401809 0.00486949 0)
(0.0425616 0.00171601 4.34563e-23)
(0.0425514 -0.00170753 8.97115e-23)
(0.0401525 -0.00485892 0)
(0.035686 -0.00725155 1.43046e-23)
(0.0297405 -0.00855418 -2.07775e-21)
(0.023074 -0.00865806 -2.28709e-21)
(0.0164834 -0.0076947 0)
(0.0106592 -0.0059929 0)
(0.00606023 -0.00398358 3.39642e-21)
(0.002849 -0.00208278 -1.41878e-21)
(0.000918756 -0.000602868 -1.04106e-21)
(-3.15071e-06 0.000281859 6.95124e-22)
(-0.000242869 0.000531835 0)
(-0.000152474 0.000319289 1.16477e-22)
(-3.85172e-05 6.10009e-05 -1.61018e-26)
(-3.6537e-06 -2.65672e-06 0)
(-1.01745e-05 -4.48664e-07 4.2381e-24)
(-7.48247e-05 -0.000114226 8.004e-25)
(-0.000216342 -0.000431768 -9.07349e-25)
(-0.000228199 -0.000580351 6.17718e-23)
(0.000297916 -0.00010962 8.2797e-22)
(0.00177345 0.001114 1.87122e-23)
(0.00456631 0.00300201 -4.45566e-23)
(0.0089496 0.00530938 3.55839e-21)
(0.0149659 0.00764489 0)
(0.022337 0.00952931 -2.07419e-21)
(0.0304657 0.0104967 3.35658e-23)
(0.0385273 0.0102133 1.38585e-22)
(0.0456113 0.00856727 1.3386e-23)
(0.0508742 0.00570474 1.2654e-24)
(0.0536726 0.00200495 -4.49194e-23)
(0.053661 -0.00199214 -4.16859e-23)
(0.0508417 -0.00569015 4.54436e-22)
(0.0455645 -0.00855001 0)
(0.0384747 -0.0101939 -1.55645e-23)
(0.0304161 -0.010477 1.50113e-23)
(0.0222967 -0.00951181 3.21913e-23)
(0.014938 -0.00763156 -3.03206e-23)
(0.0089334 -0.00530096 -3.44144e-21)
(0.00455873 -0.00299778 -1.3813e-21)
(0.0017707 -0.00111234 1.08022e-21)
(0.000297129 0.000110222 7.93731e-22)
(-0.000228422 0.000580616 4.91615e-22)
(-0.000216403 0.000431848 -1.21601e-22)
(-7.48273e-05 0.000114214 0)
(-1.01783e-05 4.37922e-07 0)
(-2.19986e-05 -7.58371e-06 9.54225e-25)
(-0.000123377 -0.000180342 1.83739e-23)
(-0.00026413 -0.000526661 -1.72199e-24)
(-0.000116997 -0.00055301 5.38293e-23)
(0.000807713 0.000178216 9.32574e-24)
(0.00295666 0.00174487 1.66407e-23)
(0.00671489 0.00400308 0)
(0.0123233 0.00663791 0)
(0.0197353 0.00919575 1.8451e-21)
(0.0285531 0.0111606 3.95946e-21)
(0.0380592 0.0120588 -1.83143e-21)
(0.0473274 0.0115712 3.47132e-21)
(0.0553722 0.00961342 0)
(0.0612998 0.00636315 0)
(0.0644371 0.00223095 0)
(0.0644246 -0.00221336 0)
(0.0612647 -0.00634427 -4.53364e-22)
(0.0553209 -0.00959269 -4.35036e-24)
(0.0472689 -0.0115492 -1.63497e-21)
(0.0380026 -0.0120372 -1.39886e-23)
(0.0285057 -0.0111416 0)
(0.019701 -0.00918113 0)
(0.0123022 -0.00662843 0)
(0.00670427 -0.00399808 2.77369e-21)
(0.00295243 -0.00174278 1.6012e-23)
(0.000806385 -0.000177437 -8.27701e-22)
(-0.000117378 0.000553346 -5.0757e-22)
(-0.000264241 0.000526776 0)
(-0.000123393 0.000180334 0)
(-2.20019e-05 7.56771e-06 0)
(-4.04253e-05 -1.9761e-05 -6.42267e-24)
(-0.000179266 -0.000253872 -5.62021e-23)
(-0.000271842 -0.000588591 -2.74822e-24)
(0.000129291 -0.000440343 5.41725e-23)
(0.00156682 0.000576271 -9.07547e-22)
(0.00450158 0.0024769 -1.89564e-23)
(0.00931292 0.00505972 -1.34952e-21)
(0.0161819 0.00794561 -2.48764e-23)
(0.0249571 0.0106363 -7.65521e-23)
(0.0351236 0.0126011 -3.82306e-21)
(0.0458613 0.0133778 3.67295e-21)
(0.0561699 0.0126745 -1.67103e-21)
(0.0650186 0.0104374 -1.14426e-23)
(0.0714899 0.00687061 3.89565e-22)
(0.0749004 0.00240363 -1.07605e-24)
(0.0748874 -0.00238097 1.06135e-24)
(0.0714531 -0.00684729 -3.85106e-22)
(0.0649644 -0.0104132 -5.89773e-22)
(0.0561071 -0.0126502 1.63502e-21)
(0.0457991 -0.0133548 1.30209e-23)
(0.03507 -0.0125812 2.90312e-23)
(0.0249168 -0.010621 -2.74509e-23)
(0.0161558 -0.00793553 -2.41486e-23)
(0.0092989 -0.00505424 -2.69936e-21)
(0.0044955 -0.00247449 -1.833e-23)
(0.00156473 -0.000575346 -8.71741e-22)
(0.00012867 0.000440739 -6.15608e-22)
(-0.00027203 0.000588738 -5.88222e-24)
(-0.000179305 0.000253867 0)
(-4.043e-05 1.97376e-05 0)
(-6.56927e-05 -3.75254e-05 0)
(-0.000232262 -0.000327236 4.22378e-23)
(-0.000209125 -0.000603652 0)
(0.000551307 -0.000238257 -6.85662e-22)
(0.00261356 0.00107434 1.36177e-23)
(0.00643533 0.00328835 0)
(0.0123682 0.00614359 1.4162e-21)
(0.0205109 0.00920623 0)
(0.0305999 0.0119516 -1.77957e-21)
(0.0420116 0.0138524 1.80815e-21)
(0.0538428 0.0144715 -3.3837e-21)
(0.0650434 0.0135513 2.38763e-24)
(0.0745607 0.011069 5.71209e-22)
(0.0814735 0.00724953 -3.32881e-23)
(0.0851026 0.00253124 0)
(0.0850894 -0.00250336 3.00865e-23)
(0.081436 -0.00722168 7.42207e-22)
(0.0745049 -0.0110415 6.00524e-22)
(0.0649777 -0.0135249 1.25087e-23)
(0.0537765 -0.0144475 -1.61686e-21)
(0.0419528 -0.0138321 0)
(0.0305541 -0.0119362 -1.60618e-21)
(0.0204799 -0.00919605 -2.43482e-23)
(0.0123505 -0.00613794 2.67304e-21)
(0.00642708 -0.0032858 3.49706e-23)
(0.00261047 -0.00107335 8.79027e-22)
(0.000550336 0.000238682 -3.14581e-23)
(-0.000209426 0.000603822 -3.57774e-24)
(-0.000232338 0.000327234 2.58687e-24)
(-6.57023e-05 3.74911e-05 0)
(-9.60872e-05 -6.08154e-05 1.6135e-25)
(-0.000265671 -0.000391348 -1.02992e-22)
(-3.99433e-05 -0.00056054 -5.33837e-24)
(0.00119041 5.23093e-05 1.20646e-23)
(0.0039835 0.0016589 -1.42014e-23)
(0.00878028 0.00415665 0)
(0.0158833 0.00722836 0)
(0.0252929 0.010398 0)
(0.0366333 0.0131314 1.56227e-21)
(0.0491843 0.014919 1.61709e-24)
(0.0619796 0.0153578 1.68324e-21)
(0.0739398 0.0142275 -1.33992e-21)
(0.0840091 0.0115345 -4.6939e-23)
(0.0912773 0.00751919 -3.58675e-22)
(0.0950797 0.00262079 2.83272e-23)
(0.0950666 -0.00258763 -3.02179e-23)
(0.0912399 -0.00748679 -3.54273e-22)
(0.0839528 -0.0115037 9.62694e-24)
(0.0738726 -0.0141992 -9.41042e-24)
(0.0619104 -0.0153331 3.10971e-21)
(0.0491215 -0.0148989 0)
(0.0365827 -0.0131165 1.64995e-21)
(0.0252573 -0.0103882 -2.27116e-23)
(0.0158618 -0.00722293 -1.30224e-21)
(0.00876955 -0.0041542 -1.17476e-24)
(0.00397917 -0.00165796 -1.48392e-23)
(0.00118895 -5.1914e-05 7.0594e-22)
(-4.04068e-05 0.000560708 -7.94072e-24)
(-0.000265802 0.000391342 0)
(-9.6107e-05 6.07646e-05 0)
(-0.000126926 -8.88841e-05 9.96319e-25)
(-0.000255522 -0.000436366 -3.14517e-23)
(0.000276293 -0.000451488 -5.83883e-22)
(0.00208736 0.000425853 1.24828e-23)
(0.00570892 0.0023141 -1.45981e-23)
(0.011554 0.00505922 1.12999e-21)
(0.0198565 0.00829026 -1.30993e-21)
(0.0305088 0.0115034 2.25817e-23)
(0.043028 0.0141699 -1.60469e-21)
(0.0566129 0.0158082 1.48074e-21)
(0.0702518 0.0160547 2.42176e-23)
(0.0828538 0.0147266 9.90763e-23)
(0.0933747 0.0118569 -9.86285e-22)
(0.100926 0.00769609 3.01504e-22)
(0.104863 0.00267826 -2.84514e-23)
(0.104851 -0.00263986 0)
(0.100889 -0.00765919 0)
(0.0933188 -0.0118228 8.88061e-24)
(0.0827863 -0.0146966 -1.21738e-21)
(0.070181 -0.0160295 -1.50416e-21)
(0.056547 -0.0157886 -1.46904e-21)
(0.0429734 -0.0141558 0)
(0.0304687 -0.0114944 2.18534e-23)
(0.0198312 -0.00828547 1.2243e-21)
(0.0115405 -0.00505716 1.68172e-23)
(0.00570308 -0.0023134 9.03097e-22)
(0.00208527 -0.000425584 -1.08322e-23)
(0.000275603 0.000451612 8.80445e-24)
(-0.000255733 0.000436341 -1.38951e-22)
(-0.000126963 8.8808e-05 -2.90451e-25)
(-0.000149485 -0.000120296 6.54789e-24)
(-0.000170204 -0.000452565 3.54183e-22)
(0.000783266 -0.000272886 6.00898e-22)
(0.00328124 0.000873059 7.96045e-22)
(0.00781835 0.00302269 0)
(0.0147693 0.00597416 -1.17061e-21)
(0.0242821 0.00930849 8.75665e-23)
(0.0361379 0.0125091 0)
(0.0497568 0.0150648 -1.41457e-21)
(0.0642717 0.016529 -1.53916e-21)
(0.078643 0.0165795 -1.30167e-21)
(0.0917827 0.0150701 1.02615e-22)
(0.102668 0.0120562 4.86774e-22)
(0.110441 0.00779441 -3.02157e-22)
(0.114482 0.0027087 -7.6616e-25)
(0.11447 -0.00266518 7.52033e-25)
(0.110405 -0.00775311 2.16089e-24)
(0.102614 -0.012019 -2.86845e-24)
(0.0917159 -0.0150384 8.98546e-23)
(0.0785717 -0.0165541 9.67531e-24)
(0.0642039 -0.0165101 1.50497e-21)
(0.0496988 -0.015052 1.35245e-21)
(0.0360939 -0.0125015 -2.0923e-23)
(0.024253 -0.00930476 -1.22648e-21)
(0.014753 -0.00597285 -5.99669e-25)
(0.00781077 -0.00302245 -9.55725e-22)
(0.00327834 -0.000873052 7.73789e-22)
(0.000782269 0.000272896 -1.73506e-23)
(-0.000170528 0.000452494 1.53371e-22)
(-0.00014955 0.00012018 4.05028e-24)
(-0.00014998 -0.000152999 -8.2932e-24)
(2.93606e-05 -0.00043123 -1.99684e-22)
(0.00152607 -2.55227e-05 -9.69261e-24)
(0.0048085 0.00138174 -2.79627e-23)
(0.0103364 0.00376686 1.4876e-23)
(0.0184345 0.00688092 1.73712e-23)
(0.0291512 0.0102654 1.2242e-21)
(0.0421592 0.0134056 2.0663e-23)
(0.056794 0.0158168 2.75973e-21)
(0.0721387 0.0170916 -2.02558e-23)
(0.0871402 0.0169493 2.57362e-21)
(0.100725 0.0152773 1.13292e-21)
(0.111901 0.0121501 0)
(0.119843 0.00782637 -2.54519e-22)
(0.123962 0.00271646 0)
(0.12395 -0.00266799 0)
(0.119809 -0.00778081 0)
(0.111849 -0.0121099 3.97381e-22)
(0.10066 -0.015244 1.13241e-21)
(0.0870694 -0.0169237 1.18476e-21)
(0.0720698 -0.0170735 0)
(0.0567336 -0.0158055 -1.38916e-21)
(0.0421118 -0.0133996 1.239e-21)
(0.0291185 -0.0102632 1.82751e-23)
(0.0184152 -0.00688074 -3.58967e-25)
(0.0103269 -0.00376738 -1.46059e-23)
(0.00480461 -0.00138218 -1.50064e-23)
(0.00152467 2.53143e-05 0)
(2.88837e-05 0.000431067 2.32465e-22)
(-0.000150084 0.000152821 -4.03236e-23)
(-0.000108699 -0.000184467 0)
(0.000388965 -0.000365497 2.96946e-22)
(0.00254945 0.000285573 -1.09292e-23)
(0.00670234 0.00193787 -3.59297e-23)
(0.0132837 0.00452897 1.47929e-23)
(0.0225536 0.00776071 -1.67521e-23)
(0.034452 0.0111467 1.15412e-21)
(0.0485514 0.0141868 -1.21219e-21)
(0.0641161 0.016429 -1.34424e-21)
(0.0801945 0.0175069 -1.88493e-23)
(0.0957329 0.0171799 -1.21735e-21)
(0.109682 0.0153657 1.75331e-24)
(0.121084 0.012154 7.06616e-24)
(0.129151 0.00780247 2.55721e-22)
(0.133325 0.00270523 -2.01578e-23)
(0.133314 -0.00265205 0)
(0.129119 -0.00775283 2.45464e-24)
(0.121034 -0.0121109 -4.01911e-22)
(0.109619 -0.0153309 -8.51179e-24)
(0.0956635 -0.0171542 -2.29928e-21)
(0.0801256 -0.0174899 -1.16985e-21)
(0.0640542 -0.0164194 -1.90801e-23)
(0.0485013 -0.0141829 -1.27439e-21)
(0.034416 -0.0111463 3.51696e-23)
(0.0225312 -0.00776206 -1.52347e-25)
(0.013272 -0.00453058 8.75987e-22)
(0.00669729 -0.001939 -1.56753e-21)
(0.00254754 -0.000286143 0)
(0.000388285 0.000365172 -2.42948e-22)
(-0.000108859 0.000184192 3.72401e-23)
(5.89877e-07 -0.000211898 0)
(0.000959804 -0.000251043 -2.94571e-22)
(0.00389613 0.000651655 -1.18977e-23)
(0.00899232 0.00252662 -8.20448e-22)
(0.0166766 0.00529205 -1.45882e-23)
(0.0271264 0.00859688 -9.95133e-22)
(0.0401709 0.0119412 -1.15436e-21)
(0.0552936 0.0148498 1.22832e-21)
(0.0717016 0.0169066 -1.8351e-23)
(0.0884225 0.0177867 -1.13472e-21)
(0.104413 0.0172867 1.81058e-23)
(0.118653 0.015351 0)
(0.130226 0.0120816 0)
(0.138382 0.00773177 0)
(0.142591 0.00267818 3.87565e-23)
(0.142581 -0.00262056 0)
(0.138352 -0.00767827 2.0858e-22)
(0.130179 -0.0120356 2.2271e-24)
(0.118593 -0.0153148 0)
(0.104346 -0.0172609 1.11321e-21)
(0.0883545 -0.0177707 2.32373e-21)
(0.071639 -0.0168989 -1.14507e-21)
(0.0552413 -0.0148481 1.08017e-21)
(0.040132 -0.0119431 4.6644e-27)
(0.0271011 -0.00860017 9.65976e-22)
(0.0166627 -0.00529512 -9.12332e-22)
(0.00898594 -0.00252872 7.96278e-22)
(0.00389361 -0.000652773 -6.55873e-22)
(0.000958863 0.000250454 0)
(3.54893e-07 0.000211476 0)
(0.000210872 -0.000232449 0)
(0.00179668 -8.65575e-05 0)
(0.00560539 0.00106108 6.74489e-22)
(0.0117042 0.00313324 1.25963e-23)
(0.0205273 0.00604027 -1.42788e-23)
(0.0321492 0.0093752 9.997e-22)
(0.0462927 0.0126409 3.29857e-23)
(0.0623653 0.015394 -1.74978e-23)
(0.079531 0.0172562 0)
(0.0968086 0.0179424 1.13027e-21)
(0.113174 0.0172837 9.83175e-22)
(0.127642 0.0152476 -5.88427e-24)
(0.139337 0.0119445 3.1987e-22)
(0.14755 0.00762208 -5.41539e-25)
(0.151781 0.00263803 -1.80471e-23)
(0.151771 -0.00257627 1.57635e-23)
(0.147522 -0.00756496 -2.11308e-22)
(0.139293 -0.0118959 3.08372e-22)
(0.127585 -0.0152099 -8.05574e-22)
(0.113109 -0.0172579 0)
(0.0967422 -0.0179276 -7.35876e-23)
(0.0794684 -0.0172505 2.17241e-21)
(0.0623116 -0.0153949 -1.09585e-21)
(0.0462513 -0.0126454 7.10906e-26)
(0.0321213 -0.00938081 -6.66397e-23)
(0.0205111 -0.00604518 8.21306e-22)
(0.0116963 -0.00313662 7.57285e-22)
(0.00560213 -0.00106299 6.69831e-22)
(0.00179541 8.55655e-05 9.62844e-24)
(0.00021054 0.000231806 0)
(0.000561682 -0.000243477 0)
(0.00295584 0.000126053 3.71766e-22)
(0.0077119 0.00150036 -1.36448e-21)
(0.0148598 0.00374377 -7.8232e-22)
(0.024844 0.00675914 -8.39344e-22)
(0.0376152 0.010084 1.45058e-23)
(0.052801 0.0132409 -1.56379e-23)
(0.0697469 0.0158215 0)
(0.0875865 0.0174854 -1.01137e-21)
(0.105341 0.0179859 9.61682e-22)
(0.122011 0.0171843 -9.64726e-22)
(0.136651 0.0150679 6.82387e-24)
(0.148428 0.0117532 -6.03885e-22)
(0.15667 0.00748015 0)
(0.160908 0.00258711 0)
(0.1609 -0.00252152 -1.63684e-23)
(0.156645 -0.00741969 1.89716e-24)
(0.148387 -0.0117021 -2.88759e-23)
(0.136598 -0.015029 8.03912e-22)
(0.12195 -0.0171584 8.76168e-22)
(0.105277 -0.0179722 -1.97983e-21)
(0.0875248 -0.0174818 -1.06086e-21)
(0.0696925 -0.015825 1.56976e-23)
(0.0527577 -0.0132482 -1.47787e-23)
(0.0375848 -0.0100923 -9.06755e-22)
(0.0248255 -0.00676629 -8.54784e-22)
(0.0148504 -0.00374881 -7.92245e-22)
(0.00770779 -0.00150334 -6.17259e-22)
(0.00295417 -0.000127632 5.61878e-24)
(0.000561227 0.000242512 -4.25287e-24)
(0.00109844 -0.000242776 -4.572e-22)
(0.00449265 0.000381758 -2.95245e-23)
(0.0102451 0.00195526 1.29748e-21)
(0.0184774 0.00434556 8.0619e-22)
(0.0296307 0.00743577 8.59903e-22)
(0.0435147 0.0107142 -1.36725e-23)
(0.059679 0.0137385 1.46867e-23)
(0.07742 0.0161357 0)
(0.0958524 0.0176029 1.02238e-21)
(0.114009 0.0179285 -9.85471e-22)
(0.130921 0.0170008 0)
(0.145683 0.0148236 0)
(0.157506 0.0115168 2.89871e-22)
(0.165755 0.00731181 4.55872e-25)
(0.16999 0.00252741 1.38443e-23)
(0.169982 -0.00245835 4.45978e-25)
(0.165732 -0.00724829 -4.43739e-25)
(0.157469 -0.0114634 -2.79581e-22)
(0.145635 -0.0147834 6.81758e-22)
(0.130864 -0.0169748 -1.68278e-21)
(0.113948 -0.0179159 9.7016e-22)
(0.0957922 -0.0176014 -1.42575e-23)
(0.0773656 -0.016142 8.90402e-22)
(0.0596344 -0.0137489 0)
(0.0434822 -0.0107255 1.32223e-23)
(0.02961 -0.00744556 -1.20888e-23)
(0.0184663 -0.00435264 0)
(0.01024 -0.00195962 1.22767e-21)
(0.00449052 -0.000384153 0)
(0.00109783 0.000241352 -4.45988e-22)
(0.00187133 -0.00022877 4.82033e-22)
(0.00645929 0.000672774 2.71217e-22)
(0.0132288 0.00241186 -6.45214e-22)
(0.0225716 0.0049275 1.15062e-23)
(0.0348875 0.00805899 -1.28159e-23)
(0.0498358 0.0112594 8.02358e-22)
(0.0669095 0.0141336 -2.72377e-23)
(0.0853669 0.0163419 1.42744e-23)
(0.104315 0.0176176 8.68423e-22)
(0.122803 0.0177812 -1.28395e-23)
(0.139901 0.0167444 -7.4922e-22)
(0.154742 0.0145246 1.20193e-24)
(0.166579 0.0112433 2.47405e-22)
(0.174816 0.0071221 -4.17943e-25)
(0.179038 0.00246065 -1.39473e-23)
(0.179031 -0.00238847 -4.08103e-25)
(0.174796 -0.00705581 1.99898e-24)
(0.166546 -0.0111878 2.40822e-22)
(0.154698 -0.0144832 -7.04141e-23)
(0.139848 -0.0167184 7.60392e-23)
(0.122746 -0.0177696 0)
(0.104257 -0.0176181 -8.3302e-22)
(0.0853132 -0.0163509 -1.73982e-21)
(0.0668642 -0.0141472 1.28441e-23)
(0.0498015 -0.011274 7.55375e-22)
(0.0348648 -0.00807179 -1.1334e-23)
(0.0225588 -0.00493703 0)
(0.0132227 -0.00241798 -6.19984e-22)
(0.00645662 -0.000676263 7.31837e-25)
(0.00187055 0.00022671 4.83453e-22)
(0.00293383 -0.000200649 7.8076e-22)
(0.00890262 0.000989179 -3.89311e-22)
(0.0166815 0.00285753 -5.79403e-22)
(0.0271536 0.00548008 0)
(0.0406108 0.00861942 0)
(0.0565648 0.0117157 -8.171e-22)
(0.0744757 0.014428 1.27528e-23)
(0.0935713 0.0164463 8.00767e-22)
(0.11296 0.0175388 -7.63187e-23)
(0.131718 0.0175545 7.55359e-22)
(0.148949 0.0164256 7.79719e-22)
(0.163831 0.0141801 -9.50402e-24)
(0.175657 0.0109395 -2.39811e-22)
(0.183864 0.00691538 0)
(0.188065 0.00238831 0)
(0.188059 -0.00231337 0)
(0.183847 -0.00684663 0)
(0.175627 -0.0108822 -2.34972e-22)
(0.163792 -0.0141377 -6.27288e-22)
(0.148901 -0.0163995 1.41222e-21)
(0.131665 -0.0175439 7.52768e-22)
(0.112905 -0.0175411 6.2885e-23)
(0.0935189 -0.016458 8.77691e-23)
(0.0744302 -0.0144449 1.07125e-25)
(0.0565292 -0.0117338 -6.97939e-23)
(0.0405863 -0.00863556 9.0261e-25)
(0.0271391 -0.00549245 -1.03161e-23)
(0.0166743 -0.0028658 0)
(0.00889935 -0.000994087 0)
(0.00293283 0.000197733 0)
(0.00434085 -0.000158443 -1.84209e-21)
(0.0118625 0.0013197 -4.1852e-22)
(0.0206167 0.00328159 5.90547e-22)
(0.0322311 0.00599531 -6.79069e-22)
(0.0467932 0.00910956 0)
(0.0636869 0.0120816 0)
(0.0823607 0.0146249 0)
(0.102018 0.0164557 -8.11355e-22)
(0.121779 0.0173756 -1.53643e-21)
(0.140747 0.0172585 -7.96953e-22)
(0.158066 0.0160539 6.4462e-22)
(0.172954 0.0137982 4.86534e-24)
(0.184744 0.0106117 -2.03721e-22)
(0.192909 0.00669542 0)
(0.197082 0.00231166 0)
(0.197077 -0.00223432 0)
(0.192893 -0.00662452 1.33304e-24)
(0.184719 -0.0105527 1.9787e-22)
(0.172919 -0.0137548 0)
(0.158023 -0.0160276 -6.80735e-22)
(0.140698 -0.0172487 -7.46843e-22)
(0.121727 -0.0173798 7.75377e-22)
(0.101968 -0.0164701 7.69764e-22)
(0.0823156 -0.0146451 6.80731e-22)
(0.0636505 -0.0121034 -7.11702e-22)
(0.0467672 -0.00912933 1.06494e-23)
(0.032215 -0.00601091 1.82325e-25)
(0.0206084 -0.00329243 -8.70283e-24)
(0.0118586 -0.00132639 0)
(0.00433961 0.0001544 0)
(0.0061469 -0.000103003 2.2629e-21)
(0.0153706 0.00165256 2.32692e-22)
(0.0250438 0.00367573 0)
(0.0378083 0.00646649 6.99237e-22)
(0.0534244 0.00952388 0)
(0.0711865 0.0123576 0)
(0.0905484 0.0147291 6.55867e-22)
(0.110693 0.016378 0)
(0.130759 0.0171373 6.85659e-23)
(0.149885 0.0169026 -9.99021e-24)
(0.16725 0.0156378 -6.32779e-22)
(0.182114 0.0133861 -3.52605e-24)
(0.193849 0.0102651 3.94755e-22)
(0.201958 0.00646546 5.81688e-23)
(0.206098 0.0022318 0)
(0.206094 -0.00215242 0)
(0.201945 -0.00639272 1.21782e-24)
(0.193828 -0.0102047 -2.01479e-22)
(0.182084 -0.0133418 0)
(0.167212 -0.0156114 0)
(0.149841 -0.0168935 1.05524e-23)
(0.130712 -0.0171432 -1.025e-23)
(0.110645 -0.0163949 6.48678e-22)
(0.0905043 -0.0147526 -6.90509e-22)
(0.0711498 -0.0123831 9.45784e-24)
(0.0533972 -0.00954752 -8.80061e-24)
(0.0377908 -0.00648567 0)
(0.0250343 -0.00368954 -5.20252e-22)
(0.015366 -0.00166144 -1.77344e-23)
(0.00614539 9.75197e-05 -1.19347e-21)
(0.00840404 -3.59288e-05 -1.2816e-21)
(0.0194498 0.00197638 1.23428e-22)
(0.0299685 0.00403408 5.98699e-22)
(0.0438862 0.00688804 5.80335e-22)
(0.0604912 0.00985885 -9.54555e-24)
(0.0790478 0.0125462 9.40604e-24)
(0.0990229 0.014746 -7.80887e-23)
(0.119583 0.0162208 -6.20115e-22)
(0.139894 0.0168327 1.30447e-21)
(0.159127 0.0164954 -9.15402e-24)
(0.176501 0.0151852 9.34997e-24)
(0.191316 0.0129501 2.2149e-22)
(0.202978 0.00990446 -3.54414e-22)
(0.211021 0.00622831 -5.87456e-23)
(0.215122 0.00214965 -8.9244e-24)
(0.215119 -0.00206861 -8.92799e-24)
(0.21101 -0.00615405 2.82919e-25)
(0.20296 -0.00984279 -1.66127e-22)
(0.191291 -0.0129051 -2.18652e-22)
(0.176468 -0.0151587 0)
(0.159088 -0.0164871 0)
(0.139851 -0.0168401 0)
(0.119538 -0.0162402 -6.56133e-22)
(0.0989804 -0.0147727 9.16604e-24)
(0.0790113 -0.0125755 8.48537e-24)
(0.0604632 -0.00988654 -1.67064e-23)
(0.0438675 -0.00691111 8.05655e-24)
(0.029958 -0.00405127 -7.99995e-24)
(0.0194445 -0.00198787 1.27841e-22)
(0.00840224 2.86461e-05 1.26653e-21)
(0.0111602 4.05816e-05 0)
(0.0241141 0.00228088 -7.22302e-22)
(0.0353939 0.00435309 3.05032e-23)
(0.0504619 0.00725529 -5.88293e-22)
(0.0679783 0.010113 -4.58894e-22)
(0.0872548 0.0126512 8.32899e-24)
(0.107769 0.0146818 -6.16738e-22)
(0.128676 0.0159924 1.20274e-21)
(0.149176 0.0164705 -6.35556e-22)
(0.168471 0.0160452 5.40757e-22)
(0.18582 0.0147031 4.87199e-24)
(0.200562 0.0124959 -2.22409e-22)
(0.212135 0.00953371 1.71232e-22)
(0.220103 0.00598641 -4.84923e-23)
(0.224162 0.00206604 9.26134e-24)
(0.22416 -0.00198367 1.6553e-23)
(0.220095 -0.00591093 1.01318e-24)
(0.212122 -0.00947105 1.66026e-22)
(0.200541 -0.0124503 2.16422e-22)
(0.185793 -0.0146765 3.553e-24)
(0.168437 -0.0160375 8.77508e-24)
(0.149137 -0.0164792 -8.55547e-24)
(0.128635 -0.016014 5.27299e-22)
(0.107729 -0.0147116 0)
(0.087219 -0.0126842 -4.74459e-22)
(0.0679499 -0.0101448 0)
(0.0504421 -0.00728252 4.49458e-22)
(0.0353823 -0.00437403 5.7332e-22)
(0.0241081 -0.0022954 -1.18683e-22)
(0.0111581 -5.00582e-05 -1.71199e-21)
(0.0144574 0.000123916 -2.00412e-21)
(0.0293693 0.00255748 5.46372e-22)
(0.0413207 0.00463113 -6.70505e-22)
(0.057529 0.00756443 0)
(0.0758687 0.0102867 8.60821e-22)
(0.095792 0.0126776 -4.63473e-22)
(0.116773 0.0145432 -1.62843e-23)
(0.137961 0.0157008 -5.11664e-23)
(0.158596 0.0160586 0)
(0.177913 0.0155595 -5.52385e-22)
(0.195208 0.014198 7.77902e-24)
(0.209855 0.0120285 -2.68925e-24)
(0.221327 0.00915642 3.65879e-24)
(0.229212 0.00574182 3.81727e-24)
(0.233225 0.00198165 -7.9446e-24)
(0.233224 -0.00189831 -7.67004e-24)
(0.229206 -0.00566543 -4.21499e-23)
(0.221317 -0.00909299 -9.16694e-25)
(0.209839 -0.0119823 0)
(0.195185 -0.0141713 0)
(0.177884 -0.0155522 0)
(0.158562 -0.0160686 0)
(0.137924 -0.0157245 -5.41995e-22)
(0.116735 -0.014576 7.49641e-24)
(0.0957575 -0.0127143 4.90306e-22)
(0.0758404 -0.0103227 -6.26901e-24)
(0.0575085 -0.00759601 -4.625e-22)
(0.0413083 -0.00465615 2.9125e-24)
(0.0293627 -0.00257546 4.8053e-22)
(0.014455 -0.000136007 3.78499e-21)
(0.0183311 0.000211257 2.11908e-21)
(0.0352139 0.00279967 4.7241e-24)
(0.047748 0.00486799 8.14569e-22)
(0.0650775 0.00781248 0)
(0.0841446 0.0103824 -4.08454e-22)
(0.104644 0.0126312 4.73345e-22)
(0.126021 0.0143373 4.36857e-22)
(0.14743 0.0153538 -4.85489e-23)
(0.168151 0.0156048 -4.66296e-22)
(0.187451 0.015045 -4.53481e-22)
(0.204664 0.0136756 4.02493e-24)
(0.219199 0.0115522 6.35547e-25)
(0.230558 0.00877565 3.33202e-24)
(0.238353 0.00549636 8.35978e-23)
(0.242318 0.00189707 7.95872e-24)
(0.242317 -0.00181308 0)
(0.23835 -0.00541935 4.38876e-23)
(0.230551 -0.00871168 -8.34049e-25)
(0.219188 -0.0115057 0)
(0.204647 -0.0136488 0)
(0.187428 -0.0150381 7.21193e-24)
(0.168122 -0.0156159 -4.45377e-22)
(0.147396 -0.0153794 -4.27813e-22)
(0.125986 -0.0143727 -3.87665e-22)
(0.104611 -0.0126715 -4.65838e-25)
(0.0841166 -0.0104225 3.04477e-22)
(0.0650566 -0.00784853 2.43853e-22)
(0.0477349 -0.00489737 -6.02864e-24)
(0.0352066 -0.0028215 1.84903e-22)
(0.0183284 -0.000226395 -4.37156e-21)
(0.0228091 0.000299784 0)
(0.04164 0.00300313 0)
(0.0546732 0.0050644 -8.48701e-22)
(0.073094 0.00799735 4.32661e-24)
(0.0927875 0.0104039 -3.29056e-22)
(0.113797 0.0125184 3.81504e-22)
(0.135499 0.0140709 -4.50269e-22)
(0.157071 0.0149593 -4.69564e-22)
(0.177834 0.0151162 4.64565e-22)
(0.197084 0.0145081 4.66458e-23)
(0.214191 0.0131408 -3.61179e-22)
(0.228597 0.0110709 0)
(0.239832 0.00839405 0)
(0.247531 0.00525155 -4.04577e-23)
(0.251445 0.00181281 0)
(0.251444 -0.0017285 1.94322e-25)
(0.24753 -0.00517421 -1.93825e-25)
(0.239829 -0.00832975 1.13841e-22)
(0.22859 -0.0110241 0)
(0.214179 -0.013114 0)
(0.197066 -0.0145016 3.91164e-22)
(0.17781 -0.0151282 4.3666e-22)
(0.157043 -0.0149864 4.27215e-22)
(0.135468 -0.0141087 4.0069e-22)
(0.113766 -0.0125619 1.06128e-23)
(0.0927605 -0.0104482 -3.16763e-22)
(0.073073 -0.00803793 -3.80748e-22)
(0.0546595 -0.00509835 -8.87421e-22)
(0.0416323 -0.00302918 1.99846e-22)
(0.0228061 -0.000318399 2.38072e-21)
(0.0279111 0.000386856 0)
(0.0486352 0.00316566 0)
(0.062092 0.00522153 -1.06375e-21)
(0.0815618 0.00811802 -3.88161e-23)
(0.101779 0.0103568 6.19575e-22)
(0.123236 0.0123454 -3.81921e-22)
(0.145196 0.0137512 -3.37337e-22)
(0.166879 0.0145244 3.72597e-22)
(0.18764 0.0145995 0)
(0.206809 0.0139545 4.02316e-22)
(0.223789 0.0125982 7.06647e-22)
(0.238051 0.0105879 5.15882e-25)
(0.249153 0.00801388 2.75168e-24)
(0.256752 0.00500871 -7.14536e-25)
(0.260611 0.0017293 0)
(0.260612 -0.00164498 0)
(0.256753 -0.00493131 6.9076e-25)
(0.249153 -0.00794949 -2.1836e-22)
(0.238048 -0.0105411 1.32856e-22)
(0.223781 -0.0125715 3.21901e-22)
(0.206796 -0.0139482 -3.82237e-22)
(0.187622 -0.0146122 -5.74511e-24)
(0.166855 -0.014553 -3.39373e-22)
(0.145168 -0.0137912 4.96594e-24)
(0.123208 -0.012392 2.70268e-22)
(0.101754 -0.0104049 -4.21794e-24)
(0.0815411 -0.00816311 1.28513e-22)
(0.062078 -0.0052602 -9.64559e-23)
(0.0486271 -0.00319623 -9.14092e-22)
(0.0279078 -0.000409359 0)
(0.0336493 0.00047015 0)
(0.0561834 0.00328689 1.29332e-21)
(0.0699984 0.00534065 1.08598e-21)
(0.0904618 0.00817468 4.16026e-23)
(0.111103 0.0102474 -5.75654e-22)
(0.132947 0.0121187 2.6404e-22)
(0.155099 0.0133852 4.20227e-23)
(0.176844 0.0140562 -3.82936e-22)
(0.197567 0.0140606 1.40878e-25)
(0.216625 0.0133892 4.09624e-25)
(0.233458 0.0120519 -3.27991e-22)
(0.247563 0.0101063 1.24556e-22)
(0.258525 0.00763713 9.7386e-23)
(0.266019 0.00476894 -6.48377e-25)
(0.269822 0.00164691 0)
(0.269823 -0.00156286 0)
(0.266021 -0.00469175 6.25365e-25)
(0.258528 -0.00757284 1.03151e-22)
(0.247565 -0.0100595 -1.33951e-22)
(0.233455 -0.0120252 -3.2405e-22)
(0.216618 -0.0133832 0)
(0.197553 -0.0140739 3.15432e-22)
(0.176825 -0.0140859 3.38999e-22)
(0.155076 -0.0134272 8.83469e-24)
(0.132922 -0.0121681 -2.79815e-22)
(0.111079 -0.0102992 0)
(0.0904418 -0.00822417 9.30664e-24)
(0.0699843 -0.00538411 1.04084e-21)
(0.0561751 -0.00332223 1.30351e-21)
(0.0336458 -0.000496914 -3.1292e-21)
(0.0400286 0.00054775 0)
(0.0642662 0.00336799 -2.82138e-21)
(0.0783843 0.00542294 -1.33931e-21)
(0.0997729 0.00816879 0)
(0.120742 0.0100829 7.40736e-24)
(0.142918 0.0118444 -5.18778e-23)
(0.165199 0.0129797 3.8032e-23)
(0.186962 0.013561 0)
(0.207609 0.0135052 0)
(0.226532 0.0128169 2.90245e-22)
(0.243199 0.0115054 1.40478e-22)
(0.257137 0.00962846 -1.2766e-22)
(0.26795 0.00726545 -9.7275e-23)
(0.275335 0.00453319 2.73424e-23)
(0.279081 0.00156594 -2.42349e-24)
(0.279083 -0.00148243 0)
(0.275339 -0.00445645 2.6154e-23)
(0.267956 -0.00720147 0)
(0.257142 -0.0095818 -1.99073e-24)
(0.243201 -0.0114788 -1.27649e-22)
(0.22653 -0.0128111 -2.7803e-22)