/*--------------------------------*- C++ -*----------------------------------*\
| =========                 |                                                 |
| \\      /  F ield         | OpenFOAM: The Open Source CFD Toolbox           |
|  \\    /   O peration     | Version:  5.x                                   |
|   \\  /    A nd           | Web:      www.OpenFOAM.org                      |
|    \\/     M anipulation  |                                                 |
\*---------------------------------------------------------------------------*/
FoamFile
{
    version     2.0;
    format      ascii;
    class       volScalarField;
    location    "0.005";
    object      p;
}
// * * * * * * * * * * * * * * * * * * * * * * * * * * * * * * * * * * * * * //

dimensions      [0 2 -2 0 0 0 0];

internalField   nonuniform List<scalar> 
7200
(
1.04939e-05
-0.00195068
-0.013145
-0.0215405
-0.0167607
-0.00197362
0.019205
0.0487898
0.089551
0.138189
0.182557
0.20525
0.191439
0.136424
0.0490352
-0.0506482
-0.138145
-0.193224
-0.206896
-0.183822
-0.138935
-0.0897751
-0.0485965
-0.0187599
0.00248868
0.0171972
0.0218042
0.0132201
0.00194884
-1.05289e-06
0.000120337
-0.00420035
-0.0166063
-0.021693
-0.0128204
0.0041433
0.026226
0.0556706
0.0940539
0.137113
0.173657
0.189305
0.172784
0.121417
0.04325
-0.0449949
-0.123236
-0.174623
-0.190972
-0.174931
-0.137872
-0.094309
-0.0555221
-0.0258216
-0.00364535
0.0132706
0.0220015
0.0167425
0.00423528
-0.000105921
-3.42904e-05
-0.00706375
-0.019405
-0.0204149
-0.00806167
0.0102702
0.0326205
0.0611162
0.0962429
0.133318
0.162484
0.172184
0.154058
0.106856
0.0377157
-0.0396033
-0.108792
-0.155978
-0.173902
-0.163793
-0.134106
-0.0965302
-0.0610085
-0.0322563
-0.00979495
0.00851723
0.0207626
0.0196075
0.00714054
5.521e-05
-0.000602219
-0.0103982
-0.0213578
-0.0179762
-0.00290335
0.0161248
0.0382248
0.0652356
0.0968662
0.128444
0.151465
0.156658
0.137792
0.094502
0.0330654
-0.0350879
-0.0965549
-0.139806
-0.158451
-0.152832
-0.129276
-0.097191
-0.0651656
-0.0378972
-0.0156741
0.00335736
0.0183534
0.0216212
0.0105214
0.000635101
-0.00175881
-0.0140606
-0.0223259
-0.0144807
0.00260439
0.0218114
0.0432369
0.0683457
0.0963368
0.1228
0.140538
0.142178
0.123116
0.0835576
0.0289765
-0.0311309
-0.0857299
-0.125232
-0.144059
-0.141978
-0.123689
-0.0967024
-0.06831
-0.0429412
-0.0213845
-0.00215606
0.0148783
0.0226384
0.0142316
0.00181045
-0.00368806
-0.0177653
-0.0220796
-0.0100313
0.00831367
0.0272378
0.0475991
0.0704629
0.0947551
0.11649
0.129684
0.12854
0.109699
0.0737189
0.0253253
-0.0276098
-0.0760121
-0.111924
-0.130518
-0.131208
-0.117443
-0.0951647
-0.0704585
-0.0473297
-0.0268313
-0.00787252
0.0104414
0.0224259
0.0179806
0.00376532
-0.00655723
-0.0211338
-0.0204478
-0.0048026
0.0140462
0.032282
0.0512279
0.0715901
0.0922267
0.109666
0.119016
0.115757
0.0974664
0.0648888
0.0220687
-0.0244814
-0.0673038
-0.0998055
-0.117841
-0.120633
-0.110692
-0.0926849
-0.0716153
-0.050979
-0.031891
-0.0136112
0.00521943
0.020814
0.0213851
0.00666376
-0.0104896
-0.0237339
-0.0173675
0.000980635
0.0196435
0.0368501
0.0540782
0.0717735
0.0888859
0.102488
0.108636
0.103831
0.0863379
0.0569715
0.019165
-0.0217038
-0.0595087
-0.088795
-0.106029
-0.110358
-0.103598
-0.0893991
-0.0718285
-0.053845
-0.0364684
-0.0192115
-0.000559887
0.0177427
0.0240104
0.0106253
-0.0155389
-0.0251137
-0.0128908
0.00707207
0.0249753
0.0408711
0.0561333
0.0710839
0.084871
0.0950963
0.0986197
0.0927435
0.0762247
0.0498717
0.016574
-0.0192368
-0.0525313
-0.0788037
-0.0950631
-0.100457
-0.0963005
-0.0854474
-0.071171
-0.0559122
-0.0404926
-0.0245418
-0.0066475
0.0132684
0.0254053
0.0157007
-0.0216663
-0.0248425
-0.00718483
0.0132277
0.0299412
0.0442927
0.0573993
0.069607
0.0803166
0.0876145
0.089026
0.082469
0.0670461
0.0435061
0.014261
-0.0170457
-0.046288
-0.06975
-0.0849171
-0.0909883
-0.0889253
-0.0809661
-0.069731
-0.0571888
-0.043912
-0.0295005
-0.012797
0.00756239
0.0251411
0.0218502
-0.0287235
-0.0225543
-0.000520822
0.019228
0.0344697
0.0470805
0.0579034
0.0674399
0.0753523
0.0801519
0.0799012
0.0729822
0.0587304
0.0378033
0.0121967
-0.015101
-0.0407068
-0.0615616
-0.0755651
-0.0819989
-0.0815816
-0.0760863
-0.0676077
-0.0577042
-0.0466933
-0.0340165
-0.0187871
0.000899445
0.0228553
0.028926
-0.0364425
-0.0179899
0.00674836
0.0248967
0.0385163
0.0492174
0.0576921
0.0646868
0.0701005
0.0728038
0.0712811
0.0642563
0.0512131
0.0327008
0.0103556
-0.0133772
-0.0357252
-0.0541737
-0.0669798
-0.073524
-0.0743653
-0.070932
-0.0649074
-0.0575072
-0.0488213
-0.0380456
-0.0244405
-0.0063648
0.0182918
0.0366623
-0.0444348
-0.0110305
0.0142203
0.0301141
0.0420575
0.0507027
0.0568285
0.0614554
0.0646756
0.0656527
0.0631931
0.0562646
0.0444369
0.0281447
0.00871614
-0.0118523
-0.0312886
-0.0475279
-0.0591334
-0.0655905
-0.067359
-0.0656186
-0.0617402
-0.0566635
-0.0502973
-0.0415655
-0.0296371
-0.013826
0.0113345
0.044673
-0.0521993
-0.00172196
0.0214811
0.0348229
0.0450845
0.0515516
0.0553888
0.0578539
0.0591826
0.0587696
0.0556574
0.0489807
0.0383507
0.0240881
0.00725954
-0.0105076
-0.0273497
-0.0415727
-0.051999
-0.0582181
-0.0606338
-0.060252
-0.0582159
-0.0552517
-0.0511392
-0.0445688
-0.0343196
-0.0210691
0.00203129
0.0524598
-0.0591399
0.00971642
0.0281457
0.0390252
0.0475964
0.051795
0.053459
0.0539879
0.0537172
0.0522153
0.0486886
0.0423794
0.032909
0.0204902
0.00596977
-0.0093266
-0.0238675
-0.0362619
-0.0455505
-0.0514205
-0.0542503
-0.0549289
-0.0544422
-0.0533604
-0.0513801
-0.0470564
-0.0384913
-0.0277087
-0.00939744
0.0594289
-0.0645903
0.0228973
0.0338952
0.0427738
0.0495951
0.0514791
0.0511318
0.0499591
0.0483661
0.0460418
0.0422971
0.0364369
0.0280717
0.0173156
0.00483301
-0.0082954
-0.020806
-0.0315547
-0.039763
-0.0452073
-0.0482601
-0.0497364
-0.0505221
-0.0510845
-0.0510687
-0.0490324
-0.0422061
-0.0334259
-0.0225638
0.0649151
-0.0678437
0.037286
0.0385073
0.0461562
0.0510821
0.0506645
0.0485023
0.0458632
0.0432067
0.0402931
0.0364897
0.0311308
0.0238031
0.0145336
0.00383732
-0.00740178
-0.0181343
-0.0274147
-0.0346132
-0.0395842
-0.0427068
-0.0447526
-0.046553
-0.0485217
-0.0502685
-0.0505006
-0.0455534
-0.0379993
-0.036933
0.0682124
-0.0681865
0.052234
0.0418771
0.0492759
0.0520584
0.0494257
0.0456657
0.0417899
0.0383086
0.0350065
0.0312704
0.0264401
0.0200718
0.0121174
0.00297241
-0.0066352
-0.0158251
-0.0238097
-0.0300792
-0.0345543
-0.0376268
-0.0400469
-0.0426259
-0.045769
-0.0490563
-0.0514643
-0.0486388
-0.0413252
-0.051857
0.0686069
-0.0649302
0.0670222
0.0440251
0.0522327
0.0525263
0.047849
0.0427137
0.0378222
0.0337333
0.0302134
0.0266413
0.0223456
0.0168497
0.0100436
0.00222934
-0.0059865
-0.0138547
-0.0207112
-0.0261407
-0.0301182
-0.0330506
-0.0356809
-0.0388247
-0.0429204
-0.047521
-0.051928
-0.0515643
-0.0434256
-0.0666168
0.065409
-0.057441
0.0809081
0.0450919
0.0551048
0.0524934
0.0460295
0.0397332
0.0340364
0.0295351
0.0259401
0.0226025
0.0188293
0.0141119
0.00829183
0.00160032
-0.00544768
-0.0122022
-0.0180936
-0.0227787
-0.0262749
-0.0290034
-0.0317086
-0.0352268
-0.0400647
-0.0457603
-0.0519021
-0.0544108
-0.0444434
-0.0804708
0.0579833
-0.0451623
0.0931739
0.0453217
0.0579355
0.0519786
0.0440675
0.036804
0.0305026
0.0257617
0.0222084
0.0191529
0.0158744
0.0118361
0.00684385
0.00107854
-0.00501172
-0.0108492
-0.0159339
-0.0199753
-0.0230217
-0.0255055
-0.0281768
-0.0319027
-0.0372836
-0.0438768
-0.0514078
-0.057224
-0.0446252
-0.0927021
0.0457715
-0.0276306
0.103169
0.045036
0.0607254
0.0510167
0.0420645
0.033999
0.0272847
0.0224545
0.0190363
0.01629
0.0134652
0.0100021
0.00568362
0.000657971
-0.00467243
-0.00977944
-0.0142115
-0.0177139
-0.0203548
-0.0225733
-0.0251261
-0.0289166
-0.0346511
-0.0419746
-0.0504826
-0.0600071
-0.0442951
-0.102661
0.0283076
-0.00448208
0.110342
0.044601
0.0634312
0.0496631
0.0401181
0.0313833
0.024441
0.0196491
0.0164381
0.0140102
0.0115866
0.0085916
0.00479675
0.00033324
-0.0044243
-0.00897821
-0.0129076
-0.0159786
-0.0182688
-0.0202194
-0.0225908
-0.0263266
-0.0322341
-0.0401535
-0.0491847
-0.0627196
-0.0438223
-0.109798
0.00522548
0.024549
0.114266
0.0443937
0.0659713
0.0479959
0.0383176
0.0290155
0.022024
0.0173757
0.0144249
0.0123085
0.0102244
0.00758767
0.00417014
9.95078e-05
-0.00426239
-0.00843224
-0.0120048
-0.0147541
-0.0167576
-0.0184528
-0.0205993
-0.0241848
-0.0300919
-0.0385051
-0.0475947
-0.0652825
-0.0435869
-0.113688
-0.0237429
0.0596382
0.114641
0.0447695
0.0682357
0.0461156
0.0367408
0.0269488
0.0200807
0.0156592
0.0130047
0.011179
0.0093642
0.00697443
0.00379177
-4.76578e-05
-0.00418219
-0.00812938
-0.011487
-0.0140254
-0.0158136
-0.0172796
-0.0191745
-0.0225371
-0.0282783
-0.0371092
-0.0458161
-0.0675886
-0.0439475
-0.114033
-0.0587758
0.100884
0.111296
0.0460358
0.0701003
0.0441418
0.0354502
0.0252317
0.0186521
0.0145198
0.0121826
0.0106141
0.00899212
0.0067368
0.00365041
-0.000112361
-0.00417958
-0.00805833
-0.0113388
-0.013778
-0.0154279
-0.0167025
-0.0183342
-0.0214231
-0.0268419
-0.0360301
-0.0439711
-0.0695165
-0.0452148
-0.110663
-0.0999744
0.148325
0.104169
0.0484334
0.0714411
0.0422078
0.0344925
0.0239096
0.0177733
0.0139729
0.0119606
0.0106052
0.00909385
0.00686021
0.00373543
-9.84839e-05
-0.0042507
-0.00820843
-0.0115455
-0.0139969
-0.0155904
-0.0167214
-0.0180912
-0.0208758
-0.0258279
-0.035316
-0.0421959
-0.0709452
-0.0476329
-0.103522
-0.147379
0.201953
0.0932898
0.0521268
0.0721486
0.0404534
0.0338987
0.0230258
0.0174729
0.0140297
0.0123377
0.0111417
0.00965471
0.0073303
0.00403655
-9.74139e-06
-0.00439191
-0.00856943
-0.0120926
-0.0146672
-0.0162897
-0.0173332
-0.0184535
-0.0209212
-0.0252783
-0.0349986
-0.0406329
-0.0717681
-0.0513697
-0.0926395
-0.200984
0.261722
0.0787496
0.0572041
0.0721387
0.0390166
0.0336847
0.0226217
0.0177727
0.014697
0.0133099
0.0122116
0.0106594
0.00813272
0.00454373
0.000150249
-0.00459971
-0.00913139
-0.0129659
-0.0157732
-0.0175127
-0.0185316
-0.0194252
-0.0215778
-0.0252328
-0.0350945
-0.0394225
-0.0719041
-0.0565167
-0.0781123
-0.260748
0.327567
0.0606797
0.0636834
0.0713603
0.038026
0.0338551
0.0227368
0.0186872
0.0159778
0.0148698
0.0138008
0.0120917
0.00925299
0.00524697
0.000377877
-0.00487067
-0.00988446
-0.0141509
-0.0172986
-0.0192446
-0.0203074
-0.0210057
-0.0228569
-0.0257286
-0.0356076
-0.038695
-0.0713048
-0.0630953
-0.0600747
-0.326607
0.399397
0.0392265
0.0715258
0.0697976
0.0375938
0.0344053
0.0234085
0.020224
0.0178709
0.0170066
0.0158935
0.0139346
0.0106762
0.00613619
0.000669553
-0.00520141
-0.0108188
-0.0156329
-0.0192265
-0.021469
-0.0226483
-0.0231908
-0.0247619
-0.0267996
-0.0365322
-0.038564
-0.0699573
-0.0710699
-0.038677
-0.398473
0.477098
0.0145361
0.0806507
0.0674694
0.0378109
0.0353255
0.0246702
0.0223832
0.0203712
0.0197061
0.0184717
0.0161696
0.0123869
0.00720114
0.00102162
-0.00558855
-0.0119243
-0.0173967
-0.0215384
-0.0241677
-0.0255383
-0.0259725
-0.0272886
-0.0284755
-0.0378565
-0.0391207
-0.0678828
-0.0803632
-0.0140693
-0.476235
0.560522
-0.0132553
0.0909516
0.0644241
0.0387439
0.0366039
0.0265509
0.025158
0.0234699
0.0229502
0.0215152
0.0187771
0.0143692
0.00843126
0.00143035
-0.00602867
-0.0131909
-0.0194267
-0.0242152
-0.0273204
-0.0289587
-0.029339
-0.0304259
-0.0307805
-0.0395653
-0.0404317
-0.0651314
-0.0908717
0.0136084
-0.559749
0.649481
-0.0440247
0.102311
0.060733
0.040435
0.0382288
0.0290731
0.0285348
0.0271537
0.0267174
0.0250016
0.0217359
0.0166061
0.00981564
0.00189187
-0.00651829
-0.014608
-0.0217065
-0.027236
-0.0309049
-0.0328869
-0.0332747
-0.0341557
-0.0337319
-0.0416429
-0.0425373
-0.0617754
-0.10248
0.0442289
-0.648829
0.743731
-0.0776582
0.11461
0.056482
0.042903
0.0401907
0.0322515
0.0324938
0.0314053
0.0309821
0.0289063
0.0250235
0.0190802
0.011343
0.00240221
-0.00705383
-0.0161646
-0.0242188
-0.0305788
-0.034897
-0.0372972
-0.0377604
-0.0384541
-0.0373389
-0.0440747
-0.0454535
-0.0579012
-0.115073
0.0776747
-0.743236
0.842963
-0.114044
0.127739
0.0517645
0.0461458
0.0424825
0.0360917
0.0370095
0.0362031
0.0357153
0.0332022
0.0286157
0.0217728
0.0130014
0.0029572
-0.00763159
-0.0178494
-0.0269458
-0.03422
-0.0392703
-0.0421605
-0.0427727
-0.0432919
-0.0416016
-0.0468477
-0.0491744
-0.0536009
-0.128539
0.11383
-0.842663
0.946788
-0.153059
0.141597
0.0466747
0.0501447
0.0450998
0.0405898
0.0420513
0.0415205
0.0408842
0.0378601
0.0324868
0.0246646
0.0147787
0.00355255
-0.00824774
-0.0196506
-0.0298683
-0.0381345
-0.0439962
-0.0474445
-0.0482844
-0.0486351
-0.0465102
-0.0499508
-0.0536758
-0.0489663
-0.14278
0.152571
-0.946724
1.05473
-0.194563
0.156093
0.0413025
0.0548672
0.0480394
0.045731
0.0475839
0.0473266
0.0464524
0.0428483
0.0366094
0.0277352
0.016662
0.00418377
-0.00889834
-0.021556
-0.0329668
-0.0422957
-0.0490439
-0.0531137
-0.0542642
-0.0544457
-0.0520446
-0.0533739
-0.0589189
-0.0440837
-0.157704
0.193754
-1.05495
1.16623
-0.238383
0.171148
0.0357309
0.0602713
0.0512983
0.0514904
0.0535677
0.0535856
0.0523806
0.048133
0.0409547
0.0309633
0.0186379
0.00484623
-0.00957928
-0.0235526
-0.0362204
-0.0466753
-0.0543805
-0.0591294
-0.0606764
-0.0606824
-0.0581753
-0.0571071
-0.0648544
-0.0390308
-0.173228
0.237205
-1.16677
1.28063
-0.284305
0.186683
0.0300349
0.0663079
0.0548719
0.0578329
0.0599597
0.0602567
0.0586262
0.0536782
0.0454923
0.0343267
0.0206927
0.00553511
-0.0102863
-0.0256273
-0.0396075
-0.0512439
-0.059971
-0.0654503
-0.067481
-0.067301
-0.064863
-0.0611387
-0.071425
-0.0338757
-0.189271
0.282712
-1.28154
1.39717
-0.332071
0.202623
0.024281
0.0729228
0.0587524
0.0647139
0.066713
0.0672947
0.0651439
0.0594457
0.0501907
0.0378022
0.0228121
0.00624544
-0.0110151
-0.0277663
-0.0431056
-0.0559704
-0.0657782
-0.0720326
-0.074634
-0.0742546
-0.0720602
-0.0654547
-0.0785684
-0.0286773
-0.205751
0.33002
-1.3985
1.51504
-0.381378
0.218887
0.018529
0.0800581
0.0629275
0.0720802
0.0737779
0.0746499
0.0718862
0.0653956
0.0550168
0.0413661
0.0249812
0.00697212
-0.011761
-0.0299554
-0.0466914
-0.0608227
-0.0717631
-0.0788298
-0.0820871
-0.0814936
-0.0797116
-0.0700373
-0.0862183
-0.0234865
-0.222582
0.378828
-1.51683
1.63331
-0.431873
0.23539
0.0128326
0.0876523
0.0673793
0.079871
0.0811015
0.0822684
0.0788031
0.0714859
0.0599368
0.0449936
0.027185
0.00770987
-0.0125194
-0.0321801
-0.050341
-0.0657673
-0.0778847
-0.0857937
-0.0897881
-0.0889666
-0.0877554
-0.0748643
-0.0943057
-0.0183481
-0.239669
0.428789
-1.63561
1.75104
-0.483162
0.252036
0.00724162
0.0956408
0.0720839
0.0880191
0.0886283
0.0900927
0.0858433
0.0776733
0.0649155
0.0486595
0.0294079
0.00845336
-0.0132856
-0.0344256
-0.0540296
-0.0707701
-0.0841006
-0.092874
-0.0976814
-0.0966196
-0.0961245
-0.0799085
-0.102759
-0.0133023
-0.256908
0.479517
-1.75388
1.86721
-0.534813
0.268722
0.00180235
0.103955
0.0770111
0.0964518
0.0963003
0.098062
0.0929539
0.0839132
0.0699174
0.052338
0.0316344
0.00919716
-0.0140546
-0.0366767
-0.0577321
-0.075796
-0.0903669
-0.100019
-0.105708
-0.104397
-0.104747
-0.0851379
-0.111505
-0.00838674
-0.274187
0.530588
-1.87062
1.98076
-0.586364
0.285333
-0.00344133
0.112523
0.082125
0.105092
0.104058
0.106113
0.100081
0.0901598
0.0749064
0.0560031
0.0338484
0.00993579
-0.0148216
-0.038918
-0.0614229
-0.0808093
-0.0966385
-0.107176
-0.113807
-0.11224
-0.113549
-0.090516
-0.120466
-0.00363733
-0.291381
0.581552
-1.98477
2.09066
-0.637334
0.301748
-0.00844794
0.121269
0.0873839
0.11386
0.111838
0.11418
0.10717
0.0963665
0.0798459
0.0596284
0.0360341
0.0106637
-0.0155815
-0.041134
-0.0650762
-0.0857743
-0.10287
-0.114292
-0.121914
-0.120091
-0.12245
-0.0960017
-0.129564
0.000911079
-0.308361
0.631934
-2.09527
2.19582
-0.687226
0.31784
-0.0131786
0.130113
0.0927416
0.122673
0.119579
0.122198
0.114166
0.102487
0.0846995
0.0631875
0.0381755
0.0113755
-0.0163293
-0.0433095
-0.068666
-0.0906549
-0.109014
-0.121313
-0.129964
-0.127888
-0.131373
-0.10155
-0.138718
0.00522484
-0.324992
0.681251
-2.20105
2.29522
-0.735542
0.333477
-0.0175974
0.138971
0.0981481
0.131448
0.127216
0.130097
0.121015
0.108473
0.0894309
0.0666541
0.0402568
0.0120656
-0.0170601
-0.0454289
-0.0721666
-0.0954153
-0.115026
-0.128185
-0.137891
-0.135569
-0.140236
-0.107114
-0.147846
0.00927166
-0.341134
0.729015
-2.30105
2.38783
-0.781789
0.348524
-0.0216723
0.147757
0.10355
0.1401
0.134686
0.137813
0.127663
0.11428
0.0940043
0.0700023
0.0422624
0.0127288
-0.0177687
-0.0474771
-0.0755524
-0.10002
-0.120858
-0.134854
-0.145629
-0.143072
-0.148957
-0.112644
-0.156861
0.0130211
-0.356648
0.77474
-2.39425
2.47269
-0.825487
0.362846
-0.0253751
0.156384
0.108894
0.148546
0.141924
0.145277
0.134057
0.119861
0.0983848
0.0732066
0.0441771
0.0133597
-0.0184504
-0.0494393
-0.0787984
-0.104435
-0.126466
-0.141268
-0.153113
-0.150336
-0.157456
-0.118087
-0.16568
0.0164457
-0.371395
0.817954
-2.47968
2.54888
-0.866175
0.37631
-0.0286828
0.164763
0.114122
0.156703
0.148867
0.152425
0.140145
0.125171
0.102538
0.0762423
0.0459863
0.0139532
-0.0191003
-0.051301
-0.08188
-0.108626
-0.131805
-0.147377
-0.160278
-0.157298
-0.165654
-0.12339
-0.174217
0.0195212
-0.385241
0.858204
-2.55641
2.61556
-0.903418
0.388786
-0.031577
0.172806
0.119179
0.164493
0.155455
0.159194
0.145878
0.130167
0.106432
0.0790856
0.0476756
0.0145047
-0.0197137
-0.0530482
-0.0847737
-0.11256
-0.136833
-0.153131
-0.167063
-0.163899
-0.173472
-0.128501
-0.182387
0.0222274
-0.398055
0.895059
-2.62358
2.67195
-0.936812
0.400148
-0.0340446
0.180428
0.12401
0.171838
0.161628
0.165524
0.151209
0.134809
0.110036
0.0817138
0.0492318
0.0150093
-0.0202863
-0.0546677
-0.0874571
-0.116208
-0.141508
-0.158483
-0.173407
-0.17008
-0.180837
-0.133367
-0.190108
0.0245481
-0.409713
0.928118
-2.68043
2.71737
-0.965987
0.410276
-0.0360769
0.187545
0.128561
0.178666
0.167332
0.17136
0.156094
0.139058
0.11332
0.0841058
0.0506423
0.0154629
-0.0208137
-0.0561471
-0.0899091
-0.11954
-0.145792
-0.16339
-0.179255
-0.175787
-0.187675
-0.137936
-0.197301
0.0264719
-0.420096
0.957011
-2.72624
2.75119
-0.990609
0.419057
-0.0376698
0.194078
0.132779
0.184909
0.172513
0.176647
0.160492
0.142878
0.116258
0.0862417
0.0518954
0.0158614
-0.0212919
-0.0574746
-0.0921099
-0.12253
-0.14965
-0.16781
-0.184555
-0.180968
-0.193922
-0.142159
-0.203888
0.0279909
-0.429093
0.981405
-2.76042
2.77292
-1.01038
0.426381
-0.0388227
0.199953
0.136617
0.190506
0.177123
0.18134
0.164365
0.146237
0.118825
0.0881037
0.0529806
0.0162012
-0.0217174
-0.0586398
-0.0940417
-0.125153
-0.153049
-0.171707
-0.189259
-0.185575
-0.199516
-0.145989
-0.2098
0.0291014
-0.436598
1.001
-2.78245
2.78212
-1.02505
0.432149
-0.0395382
0.205103
0.140031
0.1954
0.181122
0.185396
0.167681
0.149106
0.121
0.0896758
0.0538886
0.0164793
-0.0220867
-0.0596332
-0.0956884
-0.127387
-0.155961
-0.175049
-0.193324
-0.189568
-0.204402
-0.149384
-0.214969
0.0298024
-0.442514
1.01554
-2.79192
2.77848
-1.03439
0.436267
-0.0398202
0.209464
0.142979
0.199542
0.184471
0.188778
0.170412
0.15146
0.122765
0.0909443
0.0546112
0.0166928
-0.022397
-0.0604465
-0.0970362
-0.129215
-0.158361
-0.177806
-0.196717
-0.192907
-0.208531
-0.152304
-0.219337
0.0300951
-0.44675
1.0248
-2.78848
2.76176
-1.03822
0.438647
-0.0396743
0.212984
0.145429
0.202893
0.187139
0.191457
0.172535
0.153278
0.124104
0.0918979
0.055142
0.0168396
-0.0226458
-0.0610729
-0.0980735
-0.130621
-0.160228
-0.179956
-0.199405
-0.195565
-0.211864
-0.154717
-0.22285
0.029982
-0.44922
1.0286
-2.77192
2.73182
-1.03641
0.439211
-0.039106
0.215614
0.147351
0.205419
0.189104
0.193409
0.174033
0.154546
0.125005
0.0925277
0.0554758
0.0169179
-0.022831
-0.0615069
-0.0987913
-0.131593
-0.161547
-0.181482
-0.201367
-0.197516
-0.214369
-0.156594
-0.225463
0.0294659
-0.449848
1.02679
-2.74211
2.68862
-1.02886
0.437885
-0.0381203
0.217318
0.148725
0.207098
0.190348
0.19462
0.174893
0.155253
0.125461
0.0928277
0.055609
0.0169267
-0.0229512
-0.0617446
-0.099183
-0.132123
-0.162307
-0.182372
-0.202588
-0.198745
-0.216022
-0.157917
-0.227138
0.0285493
-0.448561
1.01927
-2.69899
2.63222
-1.01549
0.434605
-0.0367215
0.218064
0.149536
0.207915
0.190864
0.195083
0.175111
0.155393
0.125468
0.0927945
0.0555398
0.0168654
-0.0230053
-0.0617838
-0.0992451
-0.132206
-0.162502
-0.18262
-0.203059
-0.199244
-0.216811
-0.15867
-0.227847
0.027234
-0.445299
1.00597
-2.64264
2.56276
-0.996295
0.429317
-0.0349125
0.217834
0.149779
0.207867
0.190651
0.194796
0.174687
0.154967
0.125026
0.0924277
0.055268
0.016734
-0.0229928
-0.0616238
-0.0989768
-0.131843
-0.162133
-0.182228
-0.202782
-0.199013
-0.216731
-0.158851
-0.22757
0.0255204
-0.440006
0.986861
-2.5732
2.48049
-0.971286
0.421975
-0.0326953
0.216618
0.149456
0.206961
0.189719
0.19377
0.173629
0.15398
0.124138
0.0917302
0.0547952
0.0165331
-0.022914
-0.0612658
-0.0983805
-0.131038
-0.161206
-0.181204
-0.201765
-0.198061
-0.21579
-0.158461
-0.226299
0.0234082
-0.432639
0.961961
-2.49091
2.38573
-0.940528
0.412549
-0.0300715
0.214418
0.148579
0.205216
0.188084
0.192023
0.171952
0.152444
0.122815
0.0907077
0.0541249
0.0162641
-0.0227696
-0.0607128
-0.0974614
-0.129798
-0.159731
-0.179561
-0.200027
-0.196407
-0.214008
-0.157515
-0.224036
0.0208964
-0.423168
0.931328
-2.39611
2.27893
-0.904132
0.401024
-0.0270437
0.211248
0.147168
0.202661
0.185775
0.189581
0.169678
0.150377
0.121068
0.0893692
0.0532624
0.0159289
-0.0225611
-0.0599696
-0.0962281
-0.128136
-0.157726
-0.177321
-0.197595
-0.194077
-0.211413
-0.156032
-0.220797
0.0179853
-0.411577
0.895068
-2.28924
2.16063
-0.862269
0.387405
-0.0236173
0.207136
0.145254
0.199339
0.182828
0.186481
0.166835
0.147803
0.118915
0.0877269
0.0522148
0.0155299
-0.0222904
-0.0590428
-0.0946925
-0.12607
-0.155214
-0.174513
-0.194503
-0.191109
-0.20805
-0.154044
-0.216609
0.0146778
-0.397874
0.853346
-2.17084
2.03146
-0.815176
0.371724
-0.0198032
0.202128
0.142873
0.195305
0.17929
0.182768
0.16346
0.144751
0.116378
0.0857962
0.0509913
0.0150704
-0.0219601
-0.057941
-0.0928694
-0.12362
-0.152226
-0.171174
-0.190799
-0.18755
-0.203973
-0.151589
-0.21152
0.0109826
-0.382091
0.806397
-2.04157
1.89223
-0.763176
0.354049
-0.0156217
0.196287
0.140075
0.190628
0.175218
0.178496
0.159595
0.141257
0.113484
0.0835955
0.0496026
0.0145542
-0.0215737
-0.0566747
-0.0907769
-0.120814
-0.148795
-0.167345
-0.186536
-0.183456
-0.199252
-0.148717
-0.205592
0.00691765
-0.364296
0.754538
-1.9022
1.74386
-0.706698
0.334493
-0.0111071
0.189698
0.136916
0.185391
0.170676
0.173731
0.155291
0.137362
0.110262
0.0811465
0.0480614
0.0139855
-0.021135
-0.055256
-0.0884362
-0.11768
-0.144964
-0.163077
-0.181779
-0.178894
-0.19397
-0.145485
-0.198911
0.00251546
-0.344605
0.698196
-1.75369
1.5875
-0.64632
0.313232
-0.00631332
0.182471
0.133461
0.179693
0.165743
0.168544
0.150605
0.133114
0.106747
0.0784739
0.0463821
0.0133694
-0.0206488
-0.0536992
-0.0858718
-0.114253
-0.140779
-0.158427
-0.176601
-0.17394
-0.188226
-0.141959
-0.191589
-0.00217174
-0.323194
0.637946
-1.59717
1.42457
-0.582809
0.290519
-0.00131978
0.174746
0.129783
0.173647
0.160503
0.16302
0.145601
0.128564
0.102979
0.0756052
0.0445809
0.0127113
-0.0201201
-0.0520199
-0.0831109
-0.110573
-0.136293
-0.153458
-0.171084
-0.168679
-0.182133
-0.138212
-0.183765
-0.00706551
-0.300318
0.574553
-1.43407
1.25683
-0.517198
0.26671
0.00376232
0.166694
0.125966
0.167383
0.155051
0.157249
0.140349
0.123772
0.0989996
0.0725704
0.0426753
0.0120173
-0.0195548
-0.0502358
-0.0801833
-0.10668
-0.131563
-0.148241
-0.16532
-0.163207
-0.175821
-0.134328
-0.175614
-0.0120552
-0.276337
0.509051
-1.26615
1.08659
-0.450885
0.242291
0.00878496
0.158527
0.122104
0.161048
0.149494
0.151331
0.134924
0.118798
0.0948545
0.0694022
0.0406845
0.0112938
-0.0189593
-0.0483657
-0.0771217
-0.102622
-0.126652
-0.142851
-0.159408
-0.157629
-0.169438
-0.130401
-0.167346
-0.0169928
-0.251739
0.442836
-1.09572
0.916884
-0.38575
0.217907
0.0135647
0.150497
0.118303
0.154804
0.143945
0.145375
0.12941
0.113713
0.0905957
0.0661376
0.0386304
0.0105481
-0.0183408
-0.0464316
-0.073963
-0.098449
-0.121628
-0.137372
-0.153458
-0.15206
-0.163146
-0.126536
-0.159215
-0.0216938
-0.227175
0.377792
-0.925833
0.75172
-0.324144
0.194304
0.0179329
0.142878
0.114696
0.148831
0.13854
0.139503
0.123904
0.108595
0.0862828
0.0628193
0.0365384
0.00978877
-0.0177079
-0.0444587
-0.0707497
-0.0942214
-0.116571
-0.1319
-0.147591
-0.146634
-0.157124
-0.122869
-0.151497
-0.0259887
-0.203395
0.316275
-0.760483
0.59604
-0.268853
0.172052
0.0218571
0.135914
0.111467
0.143289
0.133402
0.133803
0.11847
0.103486
0.0819431
0.0594629
0.0344168
0.00901772
-0.0170637
-0.0424565
-0.0674987
-0.0899669
-0.111522
-0.126498
-0.141895
-0.141475
-0.151533
-0.119579
-0.144436
-0.0298436
-0.180973
0.261076
-0.604619
0.458053
-0.22633
0.152713
0.024904
0.130095
0.10867
0.138332
0.128525
0.128254
0.113024
0.0982957
0.0774821
0.0559923
0.0322133
0.00821582
-0.016394
-0.0403777
-0.0641378
-0.0855947
-0.106394
-0.121086
-0.136349
-0.136575
-0.146523
-0.116719
-0.138519
-0.0328198
-0.161475
0.218663
-0.466449
0.362748
-0.216702
0.146666
0.0230933
0.127836
0.105628
0.134777
0.124043
0.123392
0.107933
0.0934786
0.0732551
0.0527128
0.0301137
0.00745759
-0.0157597
-0.0383949
-0.0609614
-0.0814509
-0.101636
-0.116027
-0.13149
-0.132068
-0.142922
-0.11361
-0.136183
-0.030923
-0.155322
0.209174
-0.37098
0.00203014
7.64011e-05
-0.0111873
-0.0197182
-0.0150206
-0.000256954
0.0209202
0.0505011
0.0912268
0.139764
0.183951
0.206408
0.192355
0.137137
0.0495896
-0.0502223
-0.137842
-0.193059
-0.206893
-0.183991
-0.13926
-0.0902194
-0.0491153
-0.0193165
0.00192071
0.016637
0.0212663
0.0127095
0.00145115
-0.000510021
0.00213533
-0.00220689
-0.014699
-0.0198966
-0.0110806
0.00586937
0.0279524
0.057389
0.0957264
0.13867
0.175023
0.190433
0.173677
0.122115
0.0437975
-0.0445699
-0.122928
-0.174447
-0.19095
-0.175078
-0.138177
-0.0947372
-0.0560304
-0.0263726
-0.00421191
0.0127076
0.0214565
0.0162237
0.00373388
-0.000613339
0.00197457
-0.00510786
-0.0175513
-0.0186403
-0.00631904
0.0120069
0.0343581
0.06284
0.0979083
0.134853
0.163817
0.173276
0.154923
0.107537
0.0382549
-0.0391796
-0.108479
-0.155789
-0.173861
-0.163916
-0.134387
-0.0969402
-0.0615049
-0.0328008
-0.0103595
0.007952
0.020211
0.0190801
0.00663397
-0.000452417
0.00139529
-0.00848384
-0.0195531
-0.016218
-0.0011564
0.0178722
0.0399726
0.0669625
0.0985212
0.129953
0.152762
0.157716
0.13863
0.0951652
0.0335959
-0.0346661
-0.0962371
-0.139605
-0.15839
-0.15293
-0.129533
-0.0975816
-0.0656491
-0.0384346
-0.016236
0.00279103
0.0177969
0.021086
0.0100084
0.000125815
0.000220524
-0.0121899
-0.0205609
-0.0127341
0.00435635
0.0235692
0.0449937
0.0700734
0.0979786
0.124282
0.141798
0.1432
0.123926
0.084203
0.0294976
-0.0307114
-0.0854077
-0.125019
-0.143978
-0.142052
-0.123921
-0.0970728
-0.0687798
-0.0434707
-0.0219427
-0.00272224
0.0143188
0.0220969
0.0137119
0.00129868
-0.0017345
-0.0159367
-0.0203424
-0.00829162
0.010071
0.0290055
0.0493636
0.0721894
0.0963813
0.117942
0.130907
0.129526
0.110482
0.0743465
0.0258368
-0.0271932
-0.0756863
-0.111701
-0.130419
-0.131258
-0.117651
-0.0955144
-0.0709138
-0.0478506
-0.0273854
-0.00843756
0.00988044
0.02188
0.0174547
0.00325069
-0.00463482
-0.0193417
-0.0187273
-0.00306583
0.015809
0.0340589
0.0529989
0.0733133
0.093835
0.111087
0.120201
0.116708
0.098222
0.0654985
0.0225702
-0.0240681
-0.066975
-0.0995718
-0.117725
-0.120661
-0.110876
-0.0930135
-0.0720555
-0.0514909
-0.0324404
-0.0141744
0.00465831
0.0202653
0.0208541
0.00614628
-0.00860071
-0.0219703
-0.0156544
0.0027178
0.0214119
0.0386354
0.055854
0.073491
0.090474
0.103876
0.109783
0.104747
0.0870666
0.0575632
0.0196562
-0.0212944
-0.0591776
-0.0885523
-0.105897
-0.110364
-0.103758
-0.0897064
-0.0722531
-0.0543472
-0.0370128
-0.0197724
-0.00112038
0.0171927
0.0234758
0.0101053
-0.0136833
-0.0233701
-0.0111781
0.00881241
0.0267497
0.0426639
0.0579122
0.0727933
0.0864365
0.0964493
0.0997283
0.0936245
0.0769268
0.0504455
0.0170547
-0.0188318
-0.0521985
-0.0785528
-0.094916
-0.100441
-0.0964369
-0.085733
-0.0715793
-0.0564042
-0.0410315
-0.0251
-0.00720694
0.012718
0.0248684
0.0151787
-0.0198424
-0.0231109
-0.00546723
0.0149735
0.0317217
0.0460919
0.0591792
0.0713058
0.081857
0.0889314
0.0900953
0.0833153
0.0677218
0.0440621
0.014731
-0.0166454
-0.0459542
-0.0694917
-0.0847559
-0.0909529
-0.0890385
-0.0812299
-0.0701224
-0.05767
-0.044445
-0.030056
-0.0133553
0.00701214
0.024603
0.0213269
-0.0269292
-0.0208279
0.00120534
0.0209811
0.0362569
0.0488852
0.0596821
0.0691251
0.076865
0.0814311
0.0809307
0.0737938
0.0593799
0.0383414
0.0126558
-0.0147057
-0.0403725
-0.0612968
-0.0753906
-0.0819441
-0.0816721
-0.076328
-0.0679815
-0.0581739
-0.0472201
-0.0345691
-0.0193442
0.000349517
0.0223169
0.0284022
-0.0346758
-0.0162627
0.0084857
0.0266587
0.0403107
0.0510263
0.0594672
0.0663555
0.0715829
0.0740435
0.0722701
0.0650333
0.0518367
0.0332213
0.0108037
-0.0129873
-0.0353908
-0.0539029
-0.0667928
-0.0734507
-0.0744333
-0.0711514
-0.065263
-0.0579647
-0.0493413
-0.0385951
-0.0249965
-0.00691449
0.0177533
0.0361382
-0.0426942
-0.00929741
0.0159706
0.0318863
0.0438594
0.0525145
0.0585972
0.0631044
0.0661249
0.0668511
0.064141
0.0570071
0.0450349
0.0286477
0.00915317
-0.0114681
-0.0309548
-0.047252
-0.0589349
-0.0654993
-0.0674048
-0.0658154
-0.0620768
-0.0571079
-0.05081
-0.0421117
-0.0301922
-0.0143757
0.0107962
0.0441491
-0.0504838
2.19433e-05
0.0232454
0.0366059
0.0468941
0.0533648
0.0571484
0.0594799
0.0605958
0.059925
0.0565636
0.0496888
0.0389233
0.0245737
0.00768544
-0.0101293
-0.0270169
-0.0412923
-0.0517898
-0.0581097
-0.0606578
-0.0604261
-0.058533
-0.0556822
-0.0516438
-0.0451115
-0.0348739
-0.0216191
0.0014929
0.0519361
-0.0574489
0.0114758
0.0299245
0.0408197
0.0494136
0.0536079
0.0552065
0.0555874
0.0550915
0.053326
0.0495526
0.0430533
0.0334567
0.0209586
0.00638451
-0.00895456
-0.0235361
-0.0359776
-0.0453312
-0.0512957
-0.0542529
-0.0550801
-0.0547389
-0.053776
-0.0518759
-0.0475952
-0.0390447
-0.0282592
-0.00993622
0.0589052
-0.0629226
0.0246765
0.0356881
0.0445801
0.0514194
0.0532895
0.0528638
0.0515284
0.0496983
0.047106
0.0431184
0.0370769
0.0285948
0.0177671
0.00523661
-0.00792976
-0.0204765
-0.0312672
-0.0395344
-0.0450667
-0.0482417
-0.0498645
-0.0507978
-0.0514843
-0.0515549
-0.0495667
-0.0427586
-0.0339771
-0.0231033
0.0643912
-0.0661978
0.039089