/*--------------------------------*- C++ -*----------------------------------*\
| =========                 |                                                 |
| \\      /  F ield         | OpenFOAM: The Open Source CFD Toolbox           |
|  \\    /   O peration     | Version:  5.x                                   |
|   \\  /    A nd           | Web:      www.OpenFOAM.org                      |
|    \\/     M anipulation  |                                                 |
\*---------------------------------------------------------------------------*/
FoamFile
{
    version     2.0;
    format      ascii;
    class       surfaceScalarField;
    location    "0.005";
    object      phi;
}
// * * * * * * * * * * * * * * * * * * * * * * * * * * * * * * * * * * * * * //

dimensions      [0 3 -1 0 0 0 0];

internalField   nonuniform List<scalar> 
14230
(
2.61008e-17
-3.56951e-17
2.27738e-16
-2.01605e-16
2.46065e-16
-1.8241e-17
-6.42121e-16
8.88323e-16
-2.90229e-15
2.2603e-15
-6.64095e-15
3.73879e-15
-1.10928e-14
4.45197e-15
-1.34476e-14
2.35485e-15
-8.11554e-15
-5.33202e-15
1.17237e-14
-1.98392e-14
4.99978e-14
-3.8274e-14
1.0342e-13
-5.34216e-14
1.60329e-13
-5.69096e-14
2.04296e-13
-4.39663e-14
2.20984e-13
-1.66879e-14
2.04678e-13
1.63054e-14
1.60961e-13
4.3718e-14
1.04098e-13
5.68627e-14
5.05485e-14
5.35496e-14
1.20644e-14
3.84841e-14
-7.96728e-15
2.00316e-14
-1.34171e-14
5.44974e-15
-1.11046e-14
-2.31259e-15
-6.65247e-15
-4.45227e-15
-2.90388e-15
-3.74863e-15
-6.38626e-16
-2.26523e-15
2.49668e-16
-8.88227e-16
2.28501e-16
2.12429e-17
2.62202e-17
2.02323e-16
3.4922e-17
-8.69656e-18
1.06348e-16
-1.34918e-16
3.4445e-16
-4.39658e-16
-3.32301e-16
6.58623e-16
-3.63522e-15
4.19141e-15
-1.08375e-14
9.46278e-15
-2.14414e-14
1.43428e-14
-3.14608e-14
1.44716e-14
-3.12823e-14
2.17637e-15
-5.55642e-15
-3.10578e-14
6.13905e-14
-8.6786e-14
1.75501e-13
-1.52384e-13
3.24324e-13
-2.02244e-13
4.76444e-13
-2.0903e-13
5.91137e-13
-1.58658e-13
6.34182e-13
-5.97331e-14
5.92151e-13
5.83365e-14
4.78149e-13
1.5772e-13
3.26218e-13
2.08794e-13
1.77123e-13
2.02645e-13
6.24838e-14
1.53123e-13
-4.99884e-15
8.75142e-14
-3.10982e-14
3.15489e-14
-3.14513e-14
-1.95966e-15
-2.14696e-14
-1.44341e-14
-1.08517e-14
-1.43665e-14
-3.635e-15
-9.48193e-15
-3.28194e-16
-4.19495e-15
3.45945e-16
-6.52806e-16
1.06565e-16
4.41746e-16
1.3423e-16
7.25702e-18
2.14069e-16
-2.91953e-16
3.05821e-16
-5.31356e-16
-1.76652e-15
2.73108e-15
-8.71887e-15
1.11439e-14
-2.17489e-14
2.2493e-14
-3.8355e-14
3.0949e-14
-5.00223e-14
2.61389e-14
-3.98926e-14
-7.95321e-15
1.53772e-14
-8.63275e-14
1.36088e-13
-2.07496e-13
3.25612e-13
-3.41908e-13
5.60685e-13
-4.37318e-13
7.93315e-13
-4.41659e-13
9.65284e-13
-3.30627e-13
1.02923e-12
-1.23679e-13
9.66821e-13
1.20746e-13
7.95933e-13
3.28608e-13
5.63666e-13
4.41061e-13
3.28261e-13
4.38051e-13
1.37976e-13
3.43408e-13
1.64307e-14
2.0906e-13
-3.94762e-14
8.74557e-14
-4.99483e-14
8.51229e-15
-3.83893e-14
-2.59932e-14
-2.17793e-14
-3.09764e-14
-8.7257e-15
-2.25355e-14
-1.763e-15
-1.11576e-14
3.08528e-16
-2.72425e-15
2.14399e-16
5.35906e-16
2.91194e-16
5.74284e-17
3.21534e-16
-4.69839e-16
-1.2705e-16
-8.2719e-17
-4.58402e-15
7.18815e-15
-1.62753e-14
2.28353e-14
-3.52643e-14
4.14822e-14
-5.59285e-14
5.16133e-14
-6.43556e-14
3.45661e-14
-3.66564e-14
-3.56523e-14
5.62931e-14
-1.79277e-13
2.35701e-13
-3.86904e-13
4.99194e-13
-6.05401e-13
8.12271e-13
-7.50394e-13
1.11342e-12
-7.42805e-13
1.33217e-12
-5.49377e-13
1.41283e-12
-2.04345e-13
1.33413e-12
1.99446e-13
1.11681e-12
5.45934e-13
8.16213e-13
7.41654e-13
5.02813e-13
7.51452e-13
2.38404e-13
6.07816e-13
5.79122e-14
3.89552e-13
-3.59313e-14
1.81299e-13
-6.41661e-14
3.6747e-14
-5.59495e-14
-3.42098e-14
-3.53108e-14
-5.16151e-14
-1.62936e-14
-4.15526e-14
-4.58338e-15
-2.28676e-14
-1.23376e-16
-7.18419e-15
3.22354e-16
9.01916e-17
4.69451e-16
1.44083e-16
3.39304e-16
-5.53879e-16
-1.27248e-15
1.52911e-15
-9.2036e-15
1.51193e-14
-2.64016e-14
4.00334e-14
-5.07623e-14
6.5843e-14
-7.26393e-14
7.34904e-14
-7.22569e-14
3.41838e-14
-1.94676e-14
-8.84415e-14
1.18235e-13
-3.16979e-13
3.59883e-13
-6.28552e-13
6.95333e-13
-9.40851e-13
1.07919e-12
-1.13425e-12
1.43918e-12
-1.1028e-12
1.69658e-12
-8.06774e-13
1.79078e-12
-2.98547e-13
1.6989e-12
2.91328e-13
1.44323e-12
8.01606e-13
1.08398e-12
1.1009e-12
6.99859e-13
1.13558e-12
3.63406e-13
9.4427e-13
1.20475e-13
6.32483e-13
-1.83621e-14
3.20136e-13
-7.1896e-14
9.02809e-14
-7.262e-14
-3.34858e-14
-5.08203e-14
-7.34148e-14
-2.64354e-14
-6.59374e-14
-9.20927e-15
-4.00937e-14
-1.2689e-15
-1.51245e-14
3.41028e-16
-1.51974e-15
5.54428e-16
2.56029e-16
1.14329e-16
-3.20033e-16
-3.4992e-15
5.14268e-15
-1.59758e-14
2.7596e-14
-3.90203e-14
6.30781e-14
-6.74247e-14
9.42474e-14
-8.68497e-14
9.29156e-14
-7.1588e-14
1.89222e-14
1.35778e-14
-1.73607e-13
2.02163e-13
-5.05564e-13
5.08587e-13
-9.34976e-13
9.13772e-13
-1.34604e-12
1.36221e-12
-1.58269e-12
1.7733e-12
-1.51389e-12
2.06305e-12
-1.09652e-12
2.16836e-12
-4.03857e-13
2.06566e-12
3.94023e-13
1.77791e-12
1.08936e-12
1.36776e-12
1.51104e-12
9.19148e-13
1.58419e-12
5.12925e-13
1.35049e-12
2.05067e-13
9.40341e-13
1.51288e-14
5.10074e-13
-7.09977e-14
1.76407e-13
-8.67565e-14
-1.7727e-14
-6.74845e-14
-9.26868e-14
-3.90722e-14
-9.43496e-14
-1.59917e-14
-6.31742e-14
-3.49751e-15
-2.76187e-14
1.16891e-16
-5.13416e-15
3.21851e-16
3.4944e-16
-5.80674e-16
5.92703e-16
-7.21588e-15
1.17779e-14
-2.51593e-14
4.55394e-14
-5.38425e-14
9.17613e-14
-8.41864e-14
1.24591e-13
-9.67486e-14
1.05478e-13
-6.01912e-14
-1.76352e-14
6.43073e-14
-2.98106e-13
3.09064e-13
-7.5032e-13
6.82053e-13
-1.30797e-12
1.15475e-12
-1.81873e-12
1.66256e-12
-2.0905e-12
2.11859e-12
-1.96992e-12
2.43584e-12
-1.41377e-12
2.55042e-12
-5.18435e-13
2.4387e-12
5.05742e-13
2.12367e-12
1.40439e-12
1.66878e-12
1.96593e-12
1.16092e-12
2.09206e-12
6.87192e-13
1.82422e-12
3.12663e-13
1.31487e-12
6.63616e-14
7.56375e-13
-5.93131e-14
3.02082e-13
-9.65423e-14
1.95024e-14
-8.42327e-14
-1.04996e-13
-5.39125e-14
-1.2467e-13
-2.51896e-14
-9.18972e-14
-7.21869e-15
-4.55895e-14
-5.77824e-16
-1.17751e-14
-5.89864e-16
3.33855e-16
-2.04975e-15
2.69917e-15
-1.28392e-14
2.25673e-14
-3.68735e-14
6.95738e-14
-7.03372e-14
1.25225e-13
-9.97332e-14
1.53987e-13
-1.00366e-13
1.06111e-13
-3.58876e-14
-8.21133e-14
1.34511e-13
-4.68504e-13
4.39994e-13
-1.0558e-12
8.80806e-13
-1.74878e-12
1.41894e-12
-2.35686e-12
1.98181e-12
-2.65338e-12
2.47795e-12
-2.46606e-12
2.81902e-12
-1.75484e-12
2.94149e-12
-6.40903e-13
2.82209e-12
6.25147e-13
2.48344e-12
1.74304e-12
1.98863e-12
2.46074e-12
1.42583e-12
2.65485e-12
8.86725e-13
2.36333e-12
4.44308e-13
1.75729e-12
1.37118e-13
1.06357e-12
-3.46646e-14
4.73865e-13
-1.00003e-13
8.48409e-14
-9.97451e-14
-1.05254e-13
-7.04224e-14
-1.53992e-13
-3.69222e-14
-1.25397e-13
-1.28499e-14
-6.96618e-14
-2.04778e-15
-2.25772e-14
-2.6965e-15
5.88126e-17
-4.66569e-15
6.66734e-15
-2.07492e-14
3.86508e-14
-5.10514e-14
9.9876e-14
-8.77135e-14
1.61887e-13
-1.12513e-13
1.78787e-13
-9.55937e-14
8.91913e-14
3.52327e-15
-1.8123e-13
2.25976e-13
-6.90957e-13
5.96129e-13
-1.42596e-12
1.10567e-12
-2.25832e-12
1.70738e-12
-2.95858e-12
2.32184e-12
-3.26784e-12
2.85437e-12
-2.99859e-12
3.21651e-12
-2.11698e-12
3.34585e-12
-7.70242e-13
3.21974e-12
7.51254e-13
2.8602e-12
2.10257e-12
2.32918e-12
2.99177e-12
1.71496e-12
3.26908e-12
1.11234e-12
2.96594e-12
6.0117e-13
2.26846e-12
2.29178e-13
1.43556e-12
5.14537e-15
6.97898e-13
-9.50281e-14
1.85014e-13
-1.12465e-13
-8.78177e-14
-8.78072e-14
-1.7865e-13
-5.11216e-14
-1.62083e-13
-2.0772e-14
-1.00012e-13
-4.66651e-15
-3.86827e-14
-6.66735e-15
-6.95709e-16
-8.84987e-15
1.32946e-14
-3.12376e-14
6.10385e-14
-6.73974e-14
1.36036e-13
-1.0491e-13
1.994e-13
-1.20747e-13
1.94623e-13
-8.01963e-14
4.86411e-14
6.02786e-14
-3.21705e-13
3.40536e-13
-9.71214e-13
7.78805e-13
-1.86422e-12
1.35777e-12
-2.83728e-12
2.02151e-12
-3.62232e-12
2.68479e-12
-3.93112e-12
3.25089e-12
-3.56468e-12
3.63206e-12
-2.49815e-12
3.76753e-12
-9.05715e-13
3.63543e-12
8.83353e-13
3.25702e-12
2.48099e-12
2.6926e-12
3.55618e-12
2.02971e-12
3.93197e-12
1.36517e-12
3.63048e-12
7.84576e-13
2.84905e-12
3.44366e-13
1.87577e-12
6.23502e-14
9.79914e-13
-7.938e-14
3.26745e-13
-1.20607e-13
-4.65909e-14
-1.05002e-13
-1.94255e-13
-6.74909e-14
-1.99594e-13
-3.12772e-14
-1.36225e-13
-8.85626e-15
-6.11037e-14
-1.33015e-14
-2.2222e-15
-1.50392e-14
2.34573e-14
-4.44509e-14
9.04502e-14
-8.5352e-14
1.76937e-13
-1.2059e-13
2.34638e-13
-1.22435e-13
1.96469e-13
-5.18126e-14
-2.19817e-14
1.36675e-13
-5.10192e-13
4.80107e-13
-1.31465e-12
9.89555e-13
-2.37367e-12
1.63854e-12
-3.48627e-12
2.36307e-12
-4.34684e-12
3.07306e-12
-4.64111e-12
3.67062e-12
-4.16224e-12
4.06937e-12
-2.8969e-12
4.21045e-12
-1.0468e-12
4.07286e-12
1.02094e-12
3.67701e-12
2.87684e-12
3.08129e-12
4.15191e-12
2.37185e-12
4.64141e-12
1.64664e-12
4.35569e-12
9.96053e-13
3.49963e-12
4.84593e-13
2.38723e-12
1.39242e-13
1.32527e-12
-5.06973e-14
5.16684e-13
-1.22169e-13
2.48813e-14
-1.20663e-13
-1.95761e-13
-8.54685e-14
-2.34789e-13
-4.45124e-14
-1.77181e-13
-1.50548e-14
-9.05614e-14
-2.34771e-14
-4.87929e-15
-2.364e-14
3.80321e-14
-6.03319e-14
1.27142e-13
-1.04063e-13
2.20668e-13
-1.33136e-13
2.63711e-13
-1.15366e-13
1.78699e-13
-7.95099e-15
-1.29397e-13
2.35094e-13
-7.53237e-13
6.46735e-13
-1.72629e-12
1.23014e-12
-2.95708e-12
1.94973e-12
-4.20586e-12
2.73411e-12
-5.13122e-12
3.48923e-12
-5.39623e-12
4.11675e-12
-4.78977e-12
4.53205e-12
-3.3122e-12
4.67838e-12
-1.19313e-12
4.53565e-12
1.16368e-12
4.12337e-12
3.28912e-12
3.49783e-12
4.77744e-12
2.74342e-12
5.39583e-12
1.95849e-12
5.14062e-12
1.23735e-12
4.22077e-12
6.51895e-13
2.97269e-12
2.38197e-13
1.73896e-12
-6.48916e-15
7.61371e-13
-1.14936e-13
1.33328e-13
-1.33172e-13
-1.77525e-13
-1.04199e-13
-2.63761e-13
-6.04202e-14
-2.20961e-13
-2.36697e-14
-1.27312e-13
-3.80728e-14
-9.07407e-15
-3.49714e-14
5.77904e-14
-7.85629e-14
1.70733e-13
-1.22364e-13
2.64469e-13
-1.40653e-13
2.82001e-13
-9.71138e-14
1.35159e-13
5.40209e-14
-2.80532e-13
3.58035e-13
-1.05725e-12
8.42627e-13
-2.21088e-12
1.50255e-12
-3.617e-12
2.29338e-12
-4.99668e-12
3.13697e-12
-5.9748e-12
3.93609e-12
-6.19535e-12
4.59252e-12
-5.4462e-12
5.02369e-12
-3.74336e-12
5.17502e-12
-1.34446e-12
5.02736e-12
1.31134e-12
4.59932e-12
3.71715e-12
3.94502e-12
5.43175e-12
3.14676e-12
6.19408e-12
2.30276e-12
5.98463e-12
1.51048e-12
5.01305e-12
8.48474e-13
3.63469e-12
3.6171e-13
2.22573e-12
5.5875e-14
1.06721e-12
-9.64788e-14
2.85682e-13
-1.40628e-13
-1.33376e-13
-1.22514e-13
-2.81875e-13
-7.86824e-14
-2.64792e-13
-3.50208e-14
-1.70974e-13
-5.7862e-14
-1.52316e-14
-4.91989e-14
8.3271e-14
-9.85141e-14
2.20049e-13
-1.38759e-13
3.04714e-13
-1.40966e-13
2.84207e-13
-6.50353e-14
5.92291e-14
1.36893e-13
-4.82459e-13
5.08143e-13
-1.4285e-12
1.07019e-12
-2.77292e-12
1.80906e-12
-4.35588e-12
2.6718e-12
-5.85942e-12
3.57422e-12
-6.87723e-12
4.41659e-12
-7.03771e-12
5.10123e-12
-6.13085e-12
5.54782e-12
-4.18994e-12
5.70402e-12
-1.50066e-12
5.55156e-12
1.4638e-12
5.10819e-12
4.16052e-12
4.42581e-12
6.11414e-12
3.58447e-12
7.03542e-12
2.68178e-12
6.88731e-12
1.81768e-12
5.87716e-12
1.07673e-12
4.37564e-12
5.1242e-13
2.79003e-12
1.39182e-13
1.44044e-12
-6.4154e-14
4.89018e-13
-1.40851e-13
-5.66784e-14
-1.38913e-13
-2.83813e-13
-9.86677e-14
-3.05038e-13
-4.92744e-14
-2.20367e-13
-8.33848e-14
-2.37517e-14
-6.62637e-14
1.14636e-13
-1.19199e-13
2.72984e-13
-1.51416e-13
3.36931e-13
-1.31614e-13
2.64404e-13
-1.62632e-14
-5.61215e-14
2.43631e-13
-7.42354e-13
6.88243e-13
-1.87311e-12
1.33204e-12
-3.41671e-12
2.1522e-12
-5.17604e-12
3.08761e-12
-6.79483e-12
4.04871e-12
-7.83832e-12
4.93383e-12
-7.92283e-12
5.64625e-12
-6.84328e-12
6.108e-12
-4.65169e-12
6.26897e-12
-1.66163e-12
6.1118e-12
1.62097e-12
5.65335e-12
4.61897e-12
4.94331e-12
6.82418e-12
4.05936e-12
7.91936e-12
3.09815e-12
7.84853e-12
2.16148e-12
6.81383e-12
1.33928e-12
5.19784e-12
6.93147e-13
3.43616e-12
2.46397e-13
1.88719e-12
-1.50935e-14
7.50508e-13
-1.31379e-13
5.96075e-14
-1.51561e-13
-2.63632e-13
-1.19388e-13
-3.3721e-13
-6.63721e-14
-2.73383e-13
-1.14804e-13
-3.49528e-14
-8.58102e-14
1.51523e-13
-1.3924e-13
3.26414e-13
-1.58157e-13
3.55847e-13
-1.09847e-13
2.16095e-13
5.23093e-14
-2.18278e-13
3.77407e-13
-1.06745e-12
9.01369e-13
-2.39707e-12
1.63105e-12
-4.1464e-12
2.53476e-12
-6.07975e-12
3.54367e-12
-7.80374e-12
4.56345e-12
-8.85811e-12
5.49106e-12
-8.85044e-12
6.23102e-12
-7.58323e-12
6.70779e-12
-5.12847e-12
6.87349e-12
-1.82733e-12
6.71163e-12
1.78284e-12
6.23822e-12
5.09237e-12
5.50076e-12
7.56164e-12
4.57448e-12
8.84565e-12
3.55473e-12
8.86827e-12
2.54468e-12
7.82387e-12
1.63898e-12
6.10354e-12
9.06919e-13
4.16823e-12
3.80684e-13
2.41343e-12
5.38091e-14
1.07738e-12
-1.0946e-13
2.22876e-13
-1.58274e-13
-2.14817e-13
-1.39464e-13
-3.56021e-13
-8.59588e-14
-3.26888e-13
-1.51757e-13
-4.90063e-14
-1.07117e-13
1.92896e-13
-1.56843e-13
3.7614e-13
-1.56452e-13
3.55456e-13
-7.26139e-14
1.32257e-13
1.44046e-13
-4.34938e-13
5.41616e-13
-1.46502e-12
1.15079e-12
-3.00625e-12
1.97036e-12
-4.96597e-12
2.95982e-12
-7.0692e-12
4.0431e-12
-8.88703e-12
5.12171e-12
-9.93672e-12
6.09168e-12
-9.82041e-12
6.85902e-12
-8.35057e-12
7.35076e-12
-5.62021e-12
7.52118e-12
-1.99775e-12
7.35463e-12
1.94939e-12
6.86632e-12
5.58068e-12
6.10157e-12
8.32639e-12
5.13307e-12
9.81415e-12
4.05466e-12
9.94669e-12
2.97037e-12
8.90816e-12
1.97898e-12
7.09493e-12
1.157e-12
4.99021e-12
5.45439e-13
3.02499e-12
1.45917e-13
1.47691e-12
-7.20372e-14
4.4083e-13
-1.56522e-13
-1.30332e-13
-1.57097e-13
-3.55446e-13
-1.07313e-13
-3.76673e-13
-1.93206e-13
-6.58636e-14
-1.29034e-13
2.36919e-13
-1.69776e-13
4.16883e-13
-1.43414e-13
3.29093e-13
-1.65411e-14
5.38425e-15
2.62589e-13
-7.14069e-13
7.39912e-13
-1.94234e-12
1.44005e-12
-3.70639e-12
2.35338e-12
-5.8793e-12
3.43073e-12
-8.14655e-12
4.58928e-12
-1.00456e-11
5.72691e-12
-1.10744e-11
6.73918e-12
-1.08327e-11
7.53385e-12
-9.14524e-12
8.04053e-12
-6.12688e-12
8.21565e-12
-2.17287e-12
8.04441e-12
2.12062e-12
7.54121e-12
6.08388e-12
6.74923e-12
9.11837e-12
5.73856e-12
1.08248e-11
4.60129e-12
1.1084e-11
3.44188e-12
1.00676e-11
2.36268e-12
8.17413e-12
1.44693e-12
5.90595e-12
7.44309e-13
3.72762e-12
2.64869e-13
1.95635e-12
-1.57389e-14
7.21438e-13
-1.43414e-13
-2.65729e-15
-1.70055e-13
-3.28805e-13
-1.29282e-13
-4.17445e-13
-2.3731e-13
-8.51786e-14
-1.49927e-13
2.80839e-13
-1.75365e-13
4.4232e-13
-1.15785e-13
2.69513e-13
6.20843e-14
-1.72485e-13
4.11885e-13
-1.06387e-12
9.76231e-13
-2.50669e-12
1.77296e-12
-4.50311e-12
2.7838e-12
-6.89015e-12
3.95111e-12
-9.31386e-12
5.18579e-12
-1.12803e-11
6.38265e-12
-1.22712e-11
7.4372e-12
-1.18872e-11
8.25913e-12
-9.96718e-12
8.78072e-12
-6.64847e-12
8.96055e-12
-2.35269e-12
8.78462e-12
2.29655e-12
8.26654e-12
6.60196e-12
7.44738e-12
9.93753e-12
6.39457e-12
1.18776e-11
5.19822e-12
1.22803e-11
3.96282e-12
1.1303e-11
2.79376e-12
9.34318e-12
1.78052e-12
6.9192e-12
9.81226e-13
4.52691e-12
4.14611e-13
2.52296e-12
6.3149e-14
1.0729e-12
-1.15687e-13
1.76178e-13
-1.75657e-13
-2.68835e-13
-1.50234e-13
-4.42869e-13
-2.81312e-13
-1.06232e-13
-1.67637e-13
3.20914e-13
-1.70475e-13
4.45159e-13
-6.99143e-14
1.68952e-13
1.67342e-13
-4.09741e-13
5.96206e-13
-1.49273e-12
1.25482e-12
-3.1653e-12
2.15364e-12
-5.40193e-12
3.26561e-12
-8.00212e-12
4.52483e-12
-1.05731e-11
5.83644e-12
-1.25919e-11
7.09271e-12
-1.35275e-11
8.18946e-12
-1.2984e-11
9.03858e-12
-1.08163e-11
9.57504e-12
-7.18493e-12
9.75955e-12
-2.5372e-12
9.57893e-12
2.47717e-12
9.04602e-12
7.13487e-12
8.19974e-12
1.07838e-11
7.10485e-12
1.29725e-11
5.84925e-12
1.35359e-11
4.53708e-12
1.26152e-11
3.27622e-12
1.0604e-11
2.16187e-12
8.03354e-12
1.26043e-12
5.42835e-12
5.99413e-13
3.18398e-12
1.68707e-13
1.50361e-12
-6.96895e-14
4.14574e-13
-1.70769e-13
-1.67755e-13
-1.68005e-13
-4.45633e-13
-3.21461e-13
-1.27856e-13
-1.79442e-13
3.52359e-13
-1.51511e-13
4.17228e-13
-1.73782e-15
1.91791e-14
3.03709e-13
-7.15188e-13
8.20183e-13
-2.00921e-12
1.58024e-12
-3.92536e-12
2.58653e-12
-6.40822e-12
3.80307e-12
-9.21867e-12
5.15601e-12
-1.1926e-11
6.54525e-12
-1.39811e-11
7.86099e-12
-1.48432e-11
8.99981e-12
-1.41228e-11
9.87597e-12
-1.16925e-11
1.04272e-11
-7.73616e-12
1.06164e-11
-2.72637e-12
1.04311e-11
2.66245e-12
9.88341e-12
7.68255e-12
9.01017e-12
1.1657e-11
7.87332e-12
1.41094e-11
6.5584e-12
1.48508e-11
5.16876e-12
1.40048e-11
3.8143e-12
1.19585e-11
2.59544e-12
9.25241e-12
1.58649e-12
6.4373e-12
8.239e-13
3.94657e-12
3.05409e-13
2.0221e-12
-1.35598e-15
7.21339e-13
-1.51789e-13
-1.73219e-14
-1.79873e-13
-4.1755e-13
-3.52962e-13
-1.48371e-13
-1.82036e-13
3.69334e-13
-1.14394e-13
3.49585e-13
9.32575e-14
-1.88472e-13
4.76085e-13
-1.09802e-12
1.08882e-12
-2.62194e-12
1.95744e-12
-4.79397e-12
3.07639e-12
-7.52717e-12
4.40075e-12
-1.0543e-11
5.84903e-12
-1.33743e-11
7.3164e-12
-1.54485e-11
8.69156e-12
-1.62184e-11
9.87219e-12
-1.53034e-11
1.07751e-11
-1.25954e-11
1.1341e-11
-8.30202e-12
1.15347e-11
-2.92013e-12
1.13448e-11
2.85236e-12
1.07825e-11
8.24484e-12
9.88258e-12
1.2557e-11
8.70404e-12
1.52879e-11
7.32985e-12
1.6225e-11
5.86224e-12
1.54724e-11
4.41258e-12
1.34082e-11
3.08597e-12
1.0579e-11
1.96433e-12
7.55894e-12
1.09308e-12
4.81782e-12
4.78156e-13
2.63702e-12
9.38282e-14
1.10567e-12
-1.14638e-13
1.91144e-13
-1.82527e-13
-3.4966e-13
-3.69963e-13
-1.65527e-13
-1.71503e-13
3.64954e-13
-5.45464e-14
2.32628e-13
2.2007e-13
-4.63089e-13
6.89829e-13
-1.56777e-12
1.40754e-12
-3.33966e-12
2.3917e-12
-5.77813e-12
3.62831e-12
-8.76379e-12
5.06348e-12
-1.19782e-11
6.60847e-12
-1.49193e-11
8.15427e-12
-1.69943e-11
9.58859e-12
-1.76527e-11
1.08106e-11
-1.65254e-11
1.174e-11
-1.35247e-11
1.23202e-11
-8.88226e-12
1.25185e-11
-3.11841e-12
1.2324e-11
3.04682e-12
1.17473e-11
8.82152e-12
1.0821e-11
1.34833e-11
9.60118e-12
1.65077e-11
8.16798e-12
1.76582e-11
6.62211e-12
1.70183e-11
5.07588e-12
1.49544e-11
3.63855e-12
1.20164e-11
2.39924e-12
8.79824e-12
1.41236e-12
5.80471e-12
6.92304e-13
3.35708e-12
2.20862e-13
1.57711e-12
-5.47347e-14
4.66741e-13
-1.72051e-13
-2.32344e-13
-3.65566e-13
-1.76449e-13
-1.43301e-13
3.31332e-13
3.31394e-14
5.61877e-14
3.84226e-13
-8.14176e-13
9.50782e-13
-2.13433e-12
1.78217e-12
-4.17105e-12
2.88869e-12
-6.88465e-12
4.2477e-12
-1.01228e-11
5.79637e-12
-1.35269e-11
7.43913e-12
-1.6562e-11
9.06338e-12
-1.86185e-11
1.05564e-11
-1.91457e-11
1.18192e-11
-1.77882e-11
1.27744e-11
-1.448e-11
1.33687e-11
-9.47656e-12
1.35714e-11
-3.3211e-12
1.33725e-11
3.24573e-12
1.27817e-11
9.41228e-12
1.18295e-11
1.44355e-11
1.0569e-11
1.77682e-11
9.0773e-12
1.915e-11
7.45314e-12
1.86424e-11
5.8093e-12
1.65982e-11
4.25857e-12
1.35671e-11
2.89689e-12
1.01599e-11
1.78758e-12
6.91402e-12
9.53693e-13
4.19096e-12
3.85272e-13
2.14553e-12
3.30307e-14
8.18982e-13
-1.43899e-13
-5.54138e-14
-3.31865e-13
-1.776e-13
-9.2237e-14
2.59623e-13
1.54342e-13
-1.90391e-13
5.91821e-13
-1.25165e-12
1.2653e-12
-2.80781e-12
2.219e-12
-5.12475e-12
3.45448e-12
-8.12013e-12
4.94029e-12
-1.16086e-11
6.60475e-12
-1.51913e-11
8.346e-12
-1.83033e-11
1.00484e-11
-2.03209e-11
1.15993e-11
-2.06966e-11
1.2902e-11
-1.90909e-11
1.38825e-11
-1.54604e-11
1.44904e-11
-1.00845e-11
1.46973e-11
-3.52804e-12
1.44941e-11
3.44895e-12
1.38897e-11
1.00167e-11
1.29123e-11
1.54129e-11
1.1612e-11
1.90686e-11
1.00625e-11
2.06994e-11
8.36035e-12
2.03446e-11
6.61818e-12
1.83404e-11
4.95178e-12
1.52335e-11
3.46334e-12
1.16484e-11
2.225e-12
8.15236e-12
1.26867e-12
5.14729e-12
5.93152e-13
2.82105e-12
1.54338e-13
1.2578e-12
-9.2875e-14
1.91799e-13
-2.60001e-13
-1.64739e-13
-1.24397e-14
1.40094e-13
3.15355e-13
-5.18185e-13
8.49561e-13
-1.78586e-12
1.64026e-12
-3.59851e-12
2.72477e-12
-6.20926e-12
4.09552e-12
-9.49088e-12
5.71212e-12
-1.32252e-11
7.49424e-12
-1.69734e-11
9.33425e-12
-2.01433e-11
1.11141e-11
-2.21008e-11
1.27219e-11
-2.23043e-11
1.40634e-11
-2.04325e-11
1.50682e-11
-1.64652e-11
1.56892e-11
-1.07055e-11
1.59002e-11
-3.73905e-12
1.56928e-11
3.65632e-12
1.50753e-11
1.06342e-11
1.40736e-11
1.64146e-11
1.27345e-11
2.04077e-11
1.11283e-11
2.23056e-11
9.34888e-12
2.2124e-11
7.50812e-12
2.01812e-11
5.72419e-12
1.70174e-11
4.10502e-12
1.32675e-11
2.73138e-12
9.526e-12
1.64413e-12
6.23453e-12
8.5121e-13
3.61397e-12
3.15483e-13
1.79352e-12
-1.31053e-14
5.20388e-13
-1.40224e-13
-1.32883e-13
1.02678e-13
-3.78149e-14
5.23144e-13
-9.38651e-13
1.1648e-12
-2.42752e-12
2.08312e-12
-4.51683e-12
3.30666e-12
-7.4328e-12
4.81862e-12
-1.10028e-11
6.56952e-12
-1.49761e-11
8.47063e-12
-1.88745e-11
1.04092e-11
-2.20819e-11
1.22655e-11
-2.39571e-11
1.39286e-11
-2.39675e-11
1.53076e-11
-2.18115e-11
1.63356e-11
-1.74932e-11
1.6969e-11
-1.13388e-11
1.71838e-11
-3.95388e-12
1.69725e-11
3.86759e-12
1.63426e-11
1.12642e-11
1.53176e-11
1.74395e-11
1.39411e-11
2.17841e-11
1.22797e-11
2.39671e-11
1.04241e-11
2.39797e-11
8.48492e-12
2.21203e-11
6.58215e-12
1.89202e-11
4.82874e-12
1.50209e-11
3.31389e-12
1.10409e-11
2.0875e-12
7.46093e-12
1.1668e-12
4.53467e-12
5.23432e-13
2.43689e-12
1.02e-13
9.41821e-13
3.80471e-14
-7.6271e-14
2.60465e-13
-2.85429e-13
7.85401e-13
-1.46359e-12
1.54558e-12
-3.1877e-12
2.60186e-12
-5.5731e-12
3.97236e-12
-8.8033e-12
5.63097e-12
-1.26614e-11
7.51909e-12
-1.68642e-11
9.53994e-12
-2.08954e-11
1.15763e-11
-2.41182e-11
1.35074e-11
-2.58881e-11
1.52241e-11
-2.56842e-11
1.66389e-11
-2.32263e-11
1.76888e-11
-1.85432e-11
1.83338e-11
-1.19838e-11
1.85522e-11
-4.17227e-12
1.83373e-11
4.08253e-12
1.76956e-11
1.19058e-11
1.66487e-11
1.84864e-11
1.52365e-11
2.31964e-11
1.35216e-11
2.5682e-11
1.15913e-11
2.59099e-11
9.55458e-12
2.4157e-11
7.53223e-12
2.09425e-11
5.64171e-12
1.69115e-11
3.9802e-12
1.27024e-11
2.60677e-12
8.83436e-12
1.54796e-12
5.59349e-12
7.85878e-13
3.19897e-12
2.59792e-13
1.46791e-12
2.86152e-13
1.16863e-14
4.69088e-13
-6.14779e-13
1.1106e-12
-2.1051e-12
2.00064e-12
-4.07775e-12
3.20505e-12
-6.77751e-12
4.72997e-12
-1.03282e-11
6.54011e-12
-1.44716e-11
8.56768e-12
-1.88918e-11
1.07083e-11
-2.30361e-11
1.28412e-11
-2.62511e-11
1.48449e-11
-2.78919e-11
1.6613e-11
-2.74522e-11
1.80616e-11
-2.46749e-11
1.9132e-11
-1.96136e-11
1.97876e-11
-1.26394e-11
2.00092e-11
-4.3939e-12
1.97909e-11
4.30081e-12
1.91386e-11
1.25582e-11
1.80712e-11
1.95538e-11
1.66252e-11
2.46423e-11
1.48591e-11
2.74481e-11
1.28563e-11
2.79127e-11
1.07233e-11
2.62901e-11
8.58129e-12
2.30845e-11
6.55144e-12
1.89413e-11
4.73843e-12
1.45154e-11
3.21051e-12
1.03623e-11
2.00342e-12
6.80058e-12
1.11129e-12
4.0911e-12
4.68439e-13
2.11076e-12
6.1614e-13
1.38452e-13
7.37593e-13
-1.03853e-12
1.50804e-12
-2.87555e-12
2.53945e-12
-5.10916e-12
3.90183e-12
-8.13989e-12
5.58808e-12
-1.20145e-11
7.55391e-12
-1.64374e-11
9.72237e-12
-2.10603e-11
1.19822e-11
-2.52958e-11
1.42094e-11
-2.84783e-11
1.62833e-11
-2.99657e-11
1.81e-11
-2.92689e-11
1.958e-11
-2.61549e-11
2.06691e-11
-2.07027e-11
2.13343e-11
-1.33046e-11
2.15588e-11
-4.61839e-12
2.13375e-11
4.5221e-12
2.06755e-11
1.32202e-11
1.95894e-11
2.06399e-11
1.8112e-11
2.61198e-11
1.62973e-11
2.92627e-11
1.42246e-11
2.99855e-11
1.19973e-11
2.85173e-11
9.7364e-12
2.53455e-11
7.56579e-12
2.11119e-11
5.59714e-12
1.6484e-11
3.90785e-12
1.20516e-11
2.54264e-12
8.16579e-12
1.50898e-12
5.12476e-12
7.36989e-13
2.88275e-12
1.04069e-12
3.12436e-13
1.07596e-12
-1.56993e-12
1.9879e-12
-3.78748e-12
3.17217e-12
-6.29343e-12
4.7019e-12
-9.66962e-12
6.55566e-12
-1.38682e-11
8.68053e-12
-1.85623e-11
1.09904e-11
-2.33702e-11
1.33679e-11
-2.76733e-11
1.56868e-11
-3.07973e-11
1.78275e-11
-3.21064e-11
1.96897e-11
-3.11311e-11
2.11986e-11
-2.76638e-11
2.23044e-11
-2.18085e-11
2.29779e-11
-1.39782e-11
2.32048e-11
-4.84533e-12
2.2981e-11
4.74598e-12
2.23105e-11
1.38907e-11
2.12076e-11
2.17428e-11
1.97014e-11
2.7626e-11
1.78413e-11
3.11228e-11
1.57019e-11
3.21249e-11
1.33832e-11
3.08361e-11
1.10048e-11
2.77238e-11
8.69292e-12
2.34238e-11
6.56531e-12
1.86116e-11
4.70847e-12
1.39084e-11
3.17582e-12
9.69845e-12
1.98911e-12
6.31147e-12
1.07543e-12
3.79642e-12
1.57307e-12
5.43052e-13
1.49519e-12
-2.22271e-12
2.56125e-12
-4.85354e-12
3.90972e-12
-7.6419e-12
5.61547e-12
-1.13754e-11
7.64211e-12
-1.58949e-11
9.92837e-12
-2.08485e-11
1.23793e-11
-2.58211e-11
1.48719e-11
-3.01659e-11
1.72791e-11
-3.32045e-11
1.94828e-11
-3.43101e-11
2.13869e-11
-3.30351e-11
2.29215e-11
-2.91984e-11
2.40417e-11
-2.29287e-11
2.47222e-11
-1.46587e-11
2.49512e-11
-5.07424e-12
2.47251e-11
4.972e-12
2.40475e-11
1.45683e-11
2.29302e-11
2.28601e-11
2.13982e-11
2.91579e-11
1.94963e-11
3.30247e-11
1.72941e-11
3.43271e-11
1.48873e-11
3.32428e-11
1.23939e-11
3.02172e-11
9.94122e-12
2.58765e-11
7.65232e-12
2.09005e-11
5.62261e-12
1.59381e-11
3.91383e-12
1.14072e-11
2.56275e-12
7.66255e-12
1.49475e-12
4.86443e-12
2.22702e-12
8.40797e-13
2.00731e-12
-3.01101e-12
3.24007e-12
-6.0863e-12
4.76369e-12
-9.16552e-12
6.65329e-12
-1.3265e-11
8.85717e-12
-1.80987e-11
1.13061e-11
-2.32974e-11
1.38965e-11
-2.84115e-11
1.6501e-11
-3.27705e-11
1.89921e-11
-3.56956e-11
2.12543e-11
-3.65723e-11
2.31962e-11
-3.4977e-11
2.47531e-11
-3.07554e-11
2.58853e-11
-2.40608e-11
2.65712e-11
-1.53446e-11
2.68016e-11
-5.30463e-12
2.65739e-11
5.19967e-12
2.58908e-11
1.52515e-11
2.47614e-11
2.39895e-11
2.32071e-11
3.07122e-11
2.12675e-11
3.49643e-11
1.90069e-11
3.65877e-11
1.65164e-11
3.57333e-11
1.39113e-11
3.28223e-11
1.13193e-11
2.84685e-11
8.86791e-12
2.3352e-11
6.66098e-12
1.8145e-11
4.76827e-12
1.32999e-11
3.24189e-12
9.18893e-12
2.00698e-12
6.09933e-12
3.01668e-12
1.21732e-12
2.62546e-12
-3.94919e-12
4.03725e-12
-7.49809e-12
5.74635e-12
-1.08746e-11
7.82659e-12
-1.53452e-11
1.02109e-11
-2.04831e-11
1.28225e-11
-2.5909e-11
1.55496e-11
-3.11386e-11
1.82617e-11
-3.54826e-11
2.08315e-11
-3.82654e-11
2.31471e-11
-3.88878e-11
2.51221e-11
-3.6952e-11
2.66976e-11
-3.23309e-11
2.78389e-11
-2.52022e-11
2.85287e-11
-1.60344e-11
2.876e-11
-5.53592e-12
2.85312e-11
5.42844e-12
2.78441e-11
1.59386e-11
2.67054e-11
2.51281e-11
2.51325e-11
3.22852e-11
2.31598e-11
3.6937e-11
2.0846e-11
3.89015e-11
1.8277e-11
3.83023e-11
1.55646e-11
3.55346e-11
1.28361e-11
3.11971e-11
1.02221e-11
2.59659e-11
7.83481e-12
2.05323e-11
5.75141e-12
1.53833e-11
4.03941e-12
1.09009e-11
2.62527e-12
7.51347e-12
3.95644e-12
1.68551e-12
3.36387e-12
-5.05173e-12
4.96656e-12
-9.10078e-12
6.8706e-12
-1.27787e-11
9.14699e-12
-1.76216e-11
1.17136e-11
-2.30497e-11
1.44864e-11
-2.86818e-11
1.73464e-11
-3.39986e-11
2.01606e-11
-3.82967e-11
2.28032e-11
-4.0908e-11
2.51662e-11
-4.12509e-11
2.71692e-11
-3.8955e-11
2.87592e-11
-3.39209e-11
2.99066e-11
-2.63496e-11
3.05983e-11
-1.6726e-11
3.08298e-11
-5.76749e-12
3.06006e-11
5.65772e-12
2.99113e-11
1.66279e-11
2.87664e-11
2.6273e-11
2.7179e-11
3.38726e-11
2.51784e-11
3.89376e-11
2.28172e-11
4.12627e-11
2.01757e-11
4.09438e-11
1.73615e-11
3.83489e-11
1.45003e-11
3.40583e-11
1.17253e-11
2.8741e-11
9.15574e-12
2.31019e-11
6.87615e-12
1.76629e-11
4.96908e-12
1.2808e-11
3.36386e-12
9.1187e-12
5.06078e-12
2.25952e-12
4.23792e-12
-6.33296e-12
6.04263e-12
-1.09055e-11
8.14991e-12
-1.48859e-11
1.06265e-11
-2.00982e-11
1.33758e-11
-2.5799e-11
1.63071e-11
-3.16131e-11
1.92946e-11
-3.69861e-11
2.22043e-11
-4.12064e-11
2.49126e-11
-4.36164e-11
2.73167e-11
-4.36549e-11
2.9342e-11
-4.09803e-11
3.09418e-11
-3.55207e-11
3.2092e-11
-2.74999e-11
3.27837e-11
-1.74176e-11
3.30149e-11
-5.99868e-12
3.27857e-11
5.88684e-12
3.20963e-11
1.73173e-11
3.09484e-11
2.74209e-11
2.93511e-11
3.54698e-11
2.73282e-11
4.09605e-11
2.49262e-11
4.36647e-11
2.22191e-11
4.3651e-11
1.93096e-11
4.12583e-11
1.63211e-11
3.70467e-11
1.33879e-11
3.16742e-11
1.06358e-11
2.5854e-11
8.15593e-12
2.01428e-11
6.04552e-12
1.49184e-11
4.23809e-12
1.09261e-11
6.34402e-12
2.95484e-12
5.26403e-12
-7.80682e-12
7.28085e-12
-1.29223e-11
9.59826e-12
-1.72033e-11
1.22775e-11
-2.27775e-11
1.52082e-11
-2.87296e-11
1.82934e-11
-3.46983e-11
2.14017e-11
-4.00944e-11
2.43992e-11
-4.42039e-11
2.71655e-11
-4.63828e-11
2.96033e-11
-4.60926e-11
3.16446e-11
-4.30217e-11
3.32494e-11
-3.71254e-11
3.43989e-11
-2.86495e-11
3.50884e-11
-1.81071e-11
3.53185e-11
-6.22878e-12
3.50902e-11
6.11512e-12
3.44028e-11
1.80048e-11
3.32554e-11
2.85683e-11
3.16531e-11
3.70721e-11
2.96141e-11
4.29994e-11
2.71785e-11
4.61003e-11
2.44136e-11
4.64159e-11
2.14165e-11
4.42554e-11
1.83075e-11
4.01557e-11
1.52205e-11
3.47612e-11
1.22872e-11
2.87873e-11
9.60475e-12
2.28252e-11
7.28412e-12
1.7239e-11
5.26441e-12
1.29458e-11
7.82012e-12
3.78831e-12
6.45969e-12
-9.48658e-12
8.69734e-12
-1.516e-11
1.12301e-11
-1.97361e-11
1.41126e-11
-2.566e-11
1.72214e-11
-3.18385e-11
2.04543e-11
-3.79312e-11
2.36754e-11
-4.33154e-11
2.67518e-11
-4.72803e-11
2.95673e-11
-4.91983e-11
3.20308e-11
-4.85561e-11
3.40815e-11
-4.50724e-11
3.56858e-11
-3.87297e-11
3.68309e-11
-2.97945e-11
3.75159e-11
-1.87921e-11
3.77441e-11
-6.45703e-12
3.75174e-11
6.34181e-12
3.68342e-11
1.8688e-11
3.56911e-11
2.97113e-11
3.40891e-11
3.86741e-11
3.20408e-11
4.50477e-11
2.95796e-11
4.85616e-11
2.67657e-11
4.92298e-11
2.36899e-11
4.73311e-11
2.04685e-11
4.33772e-11
1.7234e-11
3.79957e-11
1.41226e-11
3.18987e-11
1.1237e-11
2.57108e-11
8.701e-12
1.9775e-11
6.4603e-12
1.51865e-11
9.50233e-12
4.7781e-12
7.84334e-12
-1.13844e-11
1.03088e-11
-1.76255e-11
1.30601e-11
-2.24874e-11
1.61443e-11
-2.87442e-11
1.94263e-11
-3.51205e-11
2.27989e-11
-4.13039e-11
2.6123e-11
-4.66394e-11
2.92682e-11
-5.04256e-11
3.21232e-11
-5.20533e-11
3.46037e-11
-5.10366e-11
3.66565e-11
-4.71252e-11
3.82547e-11
-4.0328e-11
3.93912e-11
-3.09311e-11
4.00693e-11
-1.94702e-11
4.02949e-11
-6.68261e-12
4.00706e-11
6.56611e-12
3.9394e-11
1.93647e-11
3.82593e-11
3.0846e-11
3.66633e-11
4.02702e-11
3.46129e-11
4.70981e-11
3.21347e-11
5.10398e-11
2.92815e-11
5.20831e-11
2.61372e-11
5.04754e-11
2.2813e-11
4.67014e-11
1.9439e-11
4.13697e-11
1.61547e-11
3.5183e-11
1.30675e-11
2.8798e-11
1.03129e-11
2.25296e-11
7.8442e-12
1.76552e-11
1.14028e-11
5.94368e-12
9.43428e-12
-1.35112e-11
1.21326e-11
-2.03238e-11
1.51034e-11
-2.54582e-11
1.83855e-11
-3.20262e-11
2.18334e-11
-3.85684e-11
2.53359e-11
-4.48064e-11
2.87518e-11
-5.00553e-11
3.19545e-11
-5.36282e-11
3.48383e-11
-5.49371e-11
3.73265e-11
-5.35248e-11
3.93735e-11
-4.91722e-11
4.09596e-11
-4.1914e-11
4.20832e-11
-3.20547e-11
4.27519e-11
-2.01389e-11
4.2974e-11
-6.90466e-12
4.27529e-11
6.78717e-12
4.20854e-11
2.00321e-11
4.09634e-11
3.1968e-11