/*--------------------------------*- C++ -*----------------------------------*\
| =========                 |                                                 |
| \\      /  F ield         | OpenFOAM: The Open Source CFD Toolbox           |
|  \\    /   O peration     | Version:  5.x                                   |
|   \\  /    A nd           | Web:      www.OpenFOAM.org                      |
|    \\/     M anipulation  |                                                 |
\*---------------------------------------------------------------------------*/
FoamFile
{
    version     2.0;
    format      ascii;
    class       volVectorField;
    location    "0.005";
    object      U;
}
// * * * * * * * * * * * * * * * * * * * * * * * * * * * * * * * * * * * * * //

dimensions      [0 1 -1 0 0 0 0];

internalField   nonuniform List<vector> 
7200
(
(-7.43931e-10 -1.55604e-08 0)
(1.79028e-07 2.87985e-07 5.39036e-25)
(7.9582e-07 1.39312e-06 -9.68209e-24)
(2.54683e-07 2.3626e-08 1.42399e-25)
(-4.01906e-06 -7.05384e-06 -8.78674e-24)
(-1.32241e-05 -1.85191e-05 6.12114e-25)
(-2.68324e-05 -3.04918e-05 -4.03903e-25)
(-4.04208e-05 -3.7032e-05 4.48134e-25)
(-4.10595e-05 -2.97886e-05 1.74915e-22)
(-6.84352e-06 -2.36307e-06 -4.29518e-24)
(8.37051e-05 4.19167e-05 1.95185e-22)
(0.000235261 8.64537e-05 2.20126e-22)
(0.00042373 0.000107896 2.0767e-22)
(0.000599382 8.99583e-05 0)
(0.000706072 3.50171e-05 4.2463e-25)
(0.000706742 -3.50874e-05 0)
(0.000601146 -9.02546e-05 7.53862e-25)
(0.000425977 -0.000108491 9.87382e-24)
(0.000237319 -8.7223e-05 -2.18597e-22)
(8.51361e-05 -4.26288e-05 -6.3511e-24)
(-6.11715e-06 1.89254e-06 -1.78632e-24)
(-4.08405e-05 2.95961e-05 3.44798e-22)
(-4.0433e-05 3.70228e-05 6.01151e-24)
(-2.68817e-05 3.05385e-05 -3.48768e-23)
(-1.32423e-05 1.85476e-05 -5.09329e-25)
(-4.01333e-06 7.05603e-06 8.96403e-24)
(2.63797e-07 -2.95737e-08 0)
(7.9942e-07 -1.39642e-06 6.06152e-25)
(1.77109e-07 -2.88492e-07 3.31211e-25)
(-1.06932e-09 1.56823e-08 1.61037e-27)
(5.47057e-08 1.54154e-08 1.03695e-27)
(4.61642e-07 1.38407e-06 -5.19671e-25)
(9.26604e-07 3.48265e-06 1.74208e-23)
(-2.95803e-06 -4.24712e-06 1.97933e-25)
(-1.78131e-05 -2.7748e-05 1.27431e-23)
(-4.5873e-05 -6.05236e-05 -6.55019e-24)
(-8.20819e-05 -9.0907e-05 2.62191e-25)
(-0.000107858 -0.000102701 -1.50159e-22)
(-8.29166e-05 -7.60995e-05 1.03314e-23)
(4.94058e-05 2.67656e-07 1.9721e-22)
(0.000334915 0.000112898 -2.62647e-22)
(0.000771128 0.000219326 -3.27828e-22)
(0.00128567 0.000265773 -5.84426e-22)
(0.00175017 0.000217848 -9.87667e-23)
(0.00202746 8.40042e-05 1.00756e-23)
(0.00202923 -8.45833e-05 9.23637e-24)
(0.00175488 -0.00021891 -9.93821e-23)
(0.00129182 -0.000267473 3.11375e-22)
(0.000776995 -0.000221388 2.72196e-23)
(0.000339275 -0.000114801 -2.84409e-22)
(5.18898e-05 -1.57155e-06 2.07422e-22)
(-8.19364e-05 7.55117e-05 6.98439e-24)
(-0.000107698 0.000102626 -1.36013e-22)
(-8.2173e-05 9.10261e-05 5.30038e-23)
(-4.59448e-05 6.06192e-05 5.03267e-25)
(-1.7826e-05 2.7769e-05 -2.26167e-23)
(-2.95116e-06 4.23307e-06 -2.02041e-25)
(9.29559e-07 -3.49445e-06 -1.75664e-23)
(4.57286e-07 -1.38681e-06 -5.20031e-25)
(5.4055e-08 -1.51416e-08 -1.86564e-27)
(1.51978e-07 1.48516e-07 -1.55084e-26)
(8.58072e-07 2.72651e-06 -6.05136e-26)
(2.38659e-07 3.76967e-06 1.41816e-24)
(-1.00618e-05 -1.33525e-05 -1.40866e-23)
(-3.90225e-05 -5.34005e-05 4.93899e-24)
(-8.65385e-05 -0.00010388 2.14831e-23)
(-0.000139288 -0.000146179 0)
(-0.00016085 -0.000156057 1.55262e-22)
(-8.41196e-05 -0.000107835 -2.75407e-22)
(0.000173169 8.23348e-06 -2.06134e-22)
(0.000665648 0.000167371 2.3486e-23)
(0.00137159 0.000309842 -2.16844e-24)
(0.00217186 0.000366315 2.78971e-22)
(0.00287649 0.000295943 9.94632e-23)
(0.00329134 0.000113144 -2.48389e-25)
(0.00329401 -0.000114599 -1.72104e-23)
(0.00288367 -0.00029796 1.00596e-22)
(0.00218139 -0.000369065 0)
(0.00138097 -0.000312979 5.80842e-22)
(0.000672933 -0.000170233 2.50724e-22)
(0.000177624 -1.0241e-05 -2.03799e-22)
(-8.21162e-05 0.000106862 -2.7446e-22)
(-0.00016034 0.000155869 -9.40163e-25)
(-0.000139357 0.000146336 4.26531e-23)
(-8.6667e-05 0.000104043 -4.26128e-27)
(-3.90698e-05 5.34562e-05 1.51626e-23)
(-1.0062e-05 1.33411e-05 0)
(2.44137e-07 -3.78769e-06 1.00668e-23)
(8.56459e-07 -2.73175e-06 0)
(1.51251e-07 -1.48185e-07 -1.12904e-27)
(2.99428e-07 4.09996e-07 1.49869e-26)
(1.08741e-06 3.98566e-06 0)
(-2.41714e-06 1.65769e-06 -1.16154e-23)
(-2.23831e-05 -2.70531e-05 2.01135e-24)
(-6.76222e-05 -8.28095e-05 -5.06439e-24)
(-0.000132762 -0.000147188 -1.41768e-23)
(-0.00019305 -0.000195849 -9.63185e-25)
(-0.000191977 -0.000199328 -1.77028e-22)
(-3.83541e-05 -0.000130904 0)
(0.000366158 1.3839e-05 -3.34142e-24)
(0.00107273 0.000200427 2.54086e-22)
(0.00203316 0.00035979 -2.49429e-22)
(0.00308523 0.000417609 1.97595e-24)
(0.00399156 0.000333498 0)
(0.00451864 0.00012649 6.83174e-24)
(0.00452205 -0.000129136 1.55164e-23)
(0.00400078 -0.000336652 0)
(0.00309769 -0.000421402 2.00144e-24)
(0.00204571 -0.00036384 -2.77419e-22)
(0.00108286 -0.000204039 -2.5662e-22)
(0.000372728 -1.63961e-05 0)
(-3.50966e-05 0.000129605 0)
(-0.000190927 0.00019902 1.77947e-22)
(-0.000193005 0.000196023 -4.29737e-23)
(-0.000132932 0.000147415 -1.94699e-23)
(-6.77168e-05 8.29113e-05 -5.48422e-24)
(-2.23998e-05 2.70548e-05 0)
(-2.41086e-06 -1.67894e-06 -1.2676e-23)
(1.08954e-06 -3.99398e-06 -8.88595e-26)
(2.98631e-07 -4.09799e-07 0)
(4.54943e-07 8.01465e-07 1.37877e-25)
(6.98805e-07 4.76268e-06 -9.35658e-26)
(-8.09949e-06 -3.33614e-06 1.62689e-25)
(-4.07013e-05 -4.49462e-05 3.10773e-24)
(-0.000102965 -0.000114756 5.16341e-24)
(-0.000181692 -0.000189183 5.43229e-25)
(-0.000238109 -0.000239706 -1.66842e-24)
(-0.000194893 -0.000234588 1.8161e-22)
(5.8919e-05 -0.000149684 0)
(0.00062874 1.26478e-05 -1.88094e-22)
(0.00155309 0.000211109 3.32651e-24)
(0.00275361 0.000373868 2.18767e-23)
(0.00402967 0.000428673 1.78973e-24)
(0.00510777 0.000339329 1.93365e-25)
(0.0057279 0.000127714 -7.05614e-24)
(0.00573192 -0.000131807 -7.12061e-24)
(0.00511871 -0.000343783 7.0745e-23)
(0.00404464 -0.000433526 0)
(0.00276904 -0.000378722 -1.87688e-24)
(0.00156598 -0.000215305 1.81015e-24)
(0.00063752 -1.56093e-05 2.64822e-24)
(6.36278e-05 0.000148139 -2.4943e-24)
(-0.000193115 0.000234178 -1.80306e-22)
(-0.000237839 0.00023989 -5.55575e-23)
(-0.000181872 0.000189471 2.03073e-23)
(-0.000103115 0.000114913 4.74245e-24)
(-4.07466e-05 4.49716e-05 -9.91071e-24)
(-8.09721e-06 3.31627e-06 1.33753e-23)
(7.04632e-07 -4.774e-06 0)
(4.54774e-07 -8.01593e-07 0)
(5.06833e-07 1.29335e-06 1.45979e-25)
(-9.39661e-07 4.62158e-06 -4.40437e-24)
(-1.78466e-05 -1.15049e-05 1.9162e-25)
(-6.54444e-05 -6.63911e-05 3.90896e-24)
(-0.000143913 -0.000147991 5.29562e-24)
(-0.000230048 -0.000228825 2.95354e-25)
(-0.000269148 -0.000277933 0)
(-0.000163762 -0.000264074 0)
(0.000211647 -0.000168071 1.37573e-22)
(0.000961574 1.12161e-06 3.59883e-22)
(0.00210533 0.000198793 -1.98175e-22)
(0.00353305 0.000355607 4.33546e-22)
(0.00501058 0.000405956 0)
(0.00623732 0.000319586 0)
(0.00693599 0.000119346 0)
(0.0069405 -0.000125103 0)
(0.0062497 -0.000325488 -7.06243e-23)
(0.00502775 -0.00041191 -6.37807e-25)
(0.0035511 -0.000361201 -2.08166e-22)
(0.00212086 -0.000203444 -1.66878e-24)
(0.000972617 -4.35271e-06 0)
(0.000217971 0.000166375 0)
(-0.000161075 0.000263605 0)
(-0.000268526 0.000278135 1.17956e-22)
(-0.000230187 0.000229176 2.87921e-25)
(-0.000144116 0.000148211 -5.11227e-24)
(-6.55303e-05 6.64511e-05 1.02324e-23)
(-1.78553e-05 1.14928e-05 0)
(-9.3178e-07 -4.63489e-06 0)
(5.07695e-07 -1.29394e-06 0)
(2.4585e-07 1.8225e-06 -3.22695e-25)
(-4.64791e-06 3.13413e-06 9.5874e-24)
(-3.263e-05 -2.29076e-05 2.14536e-25)
(-9.66206e-05 -9.05611e-05 4.63777e-24)
(-0.000188727 -0.000181367 -1.11747e-23)
(-0.000273992 -0.00026546 -7.32029e-25)
(-0.00028064 -0.000311231 -6.49203e-23)
(-9.29652e-05 -0.000290296 -1.31781e-24)
(0.000423578 -0.000189644 -2.0269e-24)
(0.0013658 -2.35144e-05 -3.50031e-22)
(0.00272941 0.000163423 3.94508e-22)
(0.00437327 0.000308295 -2.06301e-22)
(0.00603441 0.000354838 -1.45376e-24)
(0.00739211 0.000279188 5.40975e-23)
(0.00815845 0.000103375 -1.51989e-25)
(0.00816338 -0.000110982 1.60404e-25)
(0.0074057 -0.000286676 -5.62983e-23)
(0.00605348 -0.000361948 -8.06864e-23)
(0.0043937 -0.000314597 2.08141e-22)
(0.00274746 -0.000168431 1.53197e-24)
(0.00137913 2.01364e-05 2.4909e-24)
(0.000431648 0.000187902 -2.35528e-24)
(-8.91994e-05 0.000289833 -1.31521e-24)
(-0.000279533 0.000311478 -1.27118e-22)
(-0.000274023 0.000265882 -7.26235e-25)
(-0.000188973 0.000181657 -1.63249e-23)
(-9.67577e-05 9.06662e-05 1.76344e-24)
(-3.26591e-05 2.29109e-05 1.45972e-25)
(-4.64119e-06 -3.14726e-06 0)
(2.47819e-07 -1.8235e-06 0)
(-6.5921e-07 2.29418e-06 0)
(-1.14028e-05 -7.43557e-08 -5.56288e-24)
(-5.32396e-05 -3.73623e-05 0)
(-0.000133726 -0.000116529 1.52584e-24)
(-0.000235046 -0.000213932 1.47743e-25)
(-0.00030917 -0.000298854 0)
(-0.000266883 -0.000340757 6.80372e-23)
(2.29736e-05 -0.000315896 0)
(0.000698433 -0.00021756 -1.36159e-22)
(0.00184315 -6.32754e-05 1.65736e-22)
(0.00342655 0.0001055 -3.58768e-22)
(0.00527745 0.00023513 1.47775e-25)
(0.00710832 0.000279984 7.2499e-23)
(0.00858373 0.000222208 -6.67891e-24)
(0.00940978 8.14177e-05 0)
(0.00941506 -9.10341e-05 4.58674e-24)
(0.00859836 -0.000231409 1.06746e-22)
(0.00712905 -0.000288318 8.20908e-23)
(0.00530003 -0.000242133 1.44692e-24)
(0.00344697 -0.000110793 -1.75964e-22)
(0.00185875 5.98587e-05 0)
(0.00070835 0.000215881 -1.29564e-22)
(2.79705e-05 0.000315519 -1.76109e-24)
(-0.000265152 0.000341095 1.3774e-22)
(-0.000309012 0.000299368 1.30229e-24)
(-0.000235311 0.000214304 1.63044e-23)
(-0.000133922 0.00011669 -5.10728e-24)
(-5.33005e-05 3.73897e-05 2.30699e-25)
(-1.14024e-05 6.48855e-08 -1.66805e-25)
(-6.56656e-07 -2.2952e-06 0)
(-2.67727e-06 2.58818e-06 -4.88058e-26)
(-2.22734e-05 -5.28326e-06 6.48089e-24)
(-8.01541e-05 -5.44652e-05 2.25703e-25)
(-0.000175679 -0.000143356 2.08883e-25)
(-0.000279894 -0.00024499 -2.45883e-25)
(-0.000330763 -0.00032918 0)
(-0.000222034 -0.000368011 0)
(0.000189456 -0.000343495 0)
(0.00104006 -0.000254499 1.23403e-22)
(0.00239603 -0.000119501 -1.7549e-25)
(0.00419914 2.59302e-05 1.76646e-22)
(0.00624996 0.000139136 -1.52093e-22)
(0.00824013 0.000185393 -8.49331e-24)
(0.00982358 0.00015199 -4.77394e-23)
(0.0107036 5.47759e-05 3.46962e-24)
(0.0107092 -6.6541e-05 -4.60678e-24)
(0.00983909 -0.00016302 -5.00616e-23)
(0.00826231 -0.000195024 1.19797e-24)
(0.00627449 -0.000146857 -1.17102e-24)
(0.00422181 -3.14642e-05 3.3553e-22)
(0.00241387 0.000116138 0)
(0.00105189 0.000252991 1.32876e-22)
(0.000195819 0.000343299 -1.4042e-24)
(-0.000219542 0.000368502 -6.9798e-23)
(-0.000330323 0.000329821 -2.93758e-25)
(-0.000280142 0.000245464 -5.20016e-25)
(-0.000175935 0.000143586 3.12964e-24)
(-8.02591e-05 5.45267e-05 5.27624e-26)
(-2.22868e-05 5.28236e-06 0)
(-2.67557e-06 -2.58832e-06 0)
(-6.41634e-06 2.56805e-06 2.28032e-24)
(-3.83257e-05 -1.26429e-05 -5.08524e-25)
(-0.000113416 -7.36324e-05 3.08435e-24)
(-0.000220772 -0.000170185 2.96414e-25)
(-0.000319695 -0.000274145 -3.46647e-25)
(-0.000333527 -0.000356986 5.53314e-23)
(-0.000140106 -0.000394734 -7.8266e-23)
(0.000411918 -0.000375593 1.4241e-24)
(0.00145259 -0.00030265 -1.269e-22)
(0.00302763 -0.000192961 1.33279e-22)
(0.00505074 -7.41016e-05 2.31858e-24)
(0.00729627 2.31246e-05 1.60999e-23)
(0.00943819 7.4475e-05 -1.18035e-22)
(0.0111229 7.12692e-05 3.65002e-23)
(0.0120529 2.44964e-05 -3.48484e-24)
(0.0120588 -3.8531e-05 0)
(0.0111391 -8.42361e-05 0)
(0.00946166 -8.54819e-05 1.07134e-24)
(0.00732256 -3.1595e-05 -1.40023e-22)
(0.00507551 6.83512e-05 -1.60859e-22)
(0.00304766 0.000189726 -1.37721e-22)
(0.00146639 0.000301418 0)
(0.000419762 0.000375682 1.42291e-24)
(-0.00013672 0.000395459 7.53592e-23)
(-0.000332705 0.000357802 6.83107e-25)
(-0.000319878 0.000274746 3.34323e-23)
(-0.000221084 0.0001705 -1.74738e-26)
(-0.000113577 7.37395e-05 1.42027e-26)
(-3.83628e-05 1.2657e-05 6.58427e-24)
(-6.41818e-06 -2.56567e-06 6.52232e-26)
(-1.26056e-05 2.09237e-06 -5.7032e-24)
(-6.0501e-05 -2.21528e-05 -1.29539e-23)
(-0.000152518 -9.41602e-05 -2.99749e-24)
(-0.000266651 -0.00019631 2.08538e-23)
(-0.000350285 -0.00030131 0)
(-0.000311815 -0.000383142 -5.74502e-23)
(-1.49375e-05 -0.000422811 9.0612e-25)
(0.000695939 -0.000414487 0)
(0.00194058 -0.000363725 -1.12954e-22)
(0.00374195 -0.000283949 -1.38754e-22)
(0.00598595 -0.000193228 -1.26858e-22)
(0.00842275 -0.000110319 1.60127e-23)
(0.0107113 -4.9864e-05 5.68746e-23)
(0.0124927 -1.77115e-05 -3.6583e-23)
(0.0134702 -8.57767e-06 -8.89318e-26)
(0.0134762 -7.83249e-06 9.92336e-26)
(0.0125096 2.70827e-06 2.62595e-25)
(0.0107359 3.74011e-05 -3.56264e-25)
(0.00845065 0.000101055 1.45556e-23)
(0.0060127 0.000187266 1.04291e-24)
(0.00376411 0.0002809 1.40954e-22)
(0.00195637 0.000362866 1.12259e-22)
(0.000705359 0.000414971 -1.42527e-24)
(-1.05319e-05 0.000423864 -7.55059e-23)
(-0.000310504 0.0003842 -2.31606e-25)
(-0.000350345 0.000302077 -3.55713e-23)
(-0.000267005 0.000196731 2.05426e-23)
(-0.000152747 9.43268e-05 7.53419e-26)
(-6.05739e-05 2.21904e-05 -7.19632e-24)
(-1.26152e-05 -2.08483e-06 -3.23752e-24)
(-2.20541e-05 1.02682e-06 3.49429e-24)
(-8.94713e-05 -3.36556e-05 6.2342e-24)
(-0.000196307 -0.000115299 9.78175e-26)
(-0.000310301 -0.000221245 4.83592e-24)
(-0.000366924 -0.000326707 5.45786e-25)
(-0.000259578 -0.000408788 1.04713e-24)
(0.000159857 -0.000454176 7.72228e-23)
(0.00104736 -0.000462216 1.41222e-24)
(0.00250911 -0.000438987 2.19984e-22)
(0.00454387 -0.000392364 -1.85162e-24)
(0.00701038 -0.000329966 2.46389e-22)
(0.00963664 -0.000258829 1.19384e-22)
(0.0120688 -0.00018514 0)
(0.0139441 -0.000113106 -2.7571e-23)
(0.0149675 -4.37641e-05 0)
(0.0149737 2.48848e-05 0)
(0.0139616 9.5975e-05 0)
(0.0120944 0.00017114 4.54856e-23)
(0.009666 0.000248715 1.25929e-22)
(0.00703898 0.000323783 1.17679e-22)
(0.00456809 0.000389544 0)
(0.00252689 0.000438588 -1.15412e-22)
(0.00105843 0.000463204 9.38251e-23)
(0.000165397 0.000455662 1.13905e-24)
(-0.000257668 0.000410168 -1.94556e-25)
(-0.000366791 0.000327692 -7.56499e-25)
(-0.000310676 0.000221803 5.29094e-24)
(-0.00019661 0.000115543 0)
(-8.9594e-05 3.37274e-05 -4.61342e-24)
(-2.20778e-05 -1.01011e-06 1.22418e-23)
(-3.55847e-05 -7.44589e-07 0)
(-0.000125482 -4.68473e-05 -2.10565e-24)
(-0.000242905 -0.000136335 6.47885e-27)
(-0.000348043 -0.000244759 4.43399e-24)
(-0.000364297 -0.000350841 6.40114e-25)
(-0.000170357 -0.00043526 -1.07601e-24)
(0.000390949 -0.000490729 7.97875e-23)
(0.00147239 -0.000520515 -8.95646e-23)
(0.00316388 -0.000529277 -1.06953e-22)
(0.00543911 -0.000517791 -1.67097e-24)
(0.00813057 -0.000482772 -1.14578e-22)
(0.0109459 -0.000420243 1.28997e-25)
(0.0135203 -0.000329227 7.08831e-25)
(0.0154882 -0.000213389 2.77012e-23)
(0.0165568 -8.05086e-05 -1.82952e-24)
(0.0165631 5.90775e-05 0)
(0.0155061 0.000194046 2.80964e-25)
(0.0135467 0.000313609 -4.60041e-23)
(0.0109766 0.000409219 -8.60536e-25)
(0.0081609 0.000476343 -2.24998e-22)
(0.00546531 0.000515226 -1.04451e-22)
(0.00318365 0.000529415 -1.64809e-24)
(0.00148518 0.000522116 -9.64591e-23)
(0.000397728 0.000492762 2.45942e-24)
(-0.00016774 0.000437058 -1.54432e-25)
(-0.000363896 0.00035211 4.88745e-23)
(-0.000348407 0.000245494 -5.93414e-23)
(-0.000243286 0.00013668 0)
(-0.00012567 4.69672e-05 4.70384e-24)
(-3.5631e-05 7.76414e-07 -9.32987e-24)
(-5.39417e-05 -3.3105e-06 0)
(-0.000168191 -6.13046e-05 2.30103e-24)
(-0.000289667 -0.000156667 -1.09719e-25)
(-0.000375534 -0.000266896 -3.30227e-23)
(-0.000336508 -0.000374458 -7.29202e-25)
(-3.7259e-05 -0.000464023 -6.77585e-23)
(0.000685374 -0.000534263 -7.98951e-23)
(0.00197772 -0.000590801 9.07559e-23)
(0.0039113 -0.00063506 -1.47865e-24)
(0.00643426 -0.000659558 -9.2843e-23)
(0.00935392 -0.000650079 1.5483e-24)
(0.0123592 -0.000592596 0)
(0.0150756 -0.000480294 0)
(0.0171359 -0.000317293 0)
(0.0182495 -0.000118359 3.35943e-24)
(0.018256 9.4302e-05 0)
(0.0171543 0.00029566 2.31815e-23)
(0.0151028 0.00046298 2.43923e-25)
(0.0123911 0.000580595 0)
(0.00938586 0.000643369 1.0713e-22)
(0.00646237 0.000657262 2.04855e-22)
(0.00393302 0.0006358 -9.39132e-23)
(0.00199226 0.000593119 8.43497e-23)
(0.000693485 0.000536963 7.9901e-26)
(-3.38289e-05 0.000466346 6.83033e-23)
(-0.000335756 0.000376094 -5.09273e-23)
(-0.000375848 0.00026786 3.31539e-23)
(-0.000290123 0.000157142 -2.12966e-23)
(-0.000168461 6.14908e-05 0)
(-5.40213e-05 3.36602e-06 0)
(-7.76758e-05 -6.72659e-06 0)
(-0.000216517 -7.65265e-05 0)
(-0.000333148 -0.000175872 2.81636e-23)
(-0.000387764 -0.000287963 7.16744e-25)
(-0.00027706 -0.000398499 -8.12494e-25)
(0.000147084 -0.000496599 6.80131e-23)
(0.00105061 -0.00058641 2.4032e-24)
(0.0025706 -0.000674163 -1.29372e-24)
(0.00475848 -0.000756464 0)
(0.00753678 -0.000816795 9.23864e-23)
(0.0106886 -0.00083032 8.06867e-23)
(0.0138858 -0.000774091 -5.26353e-25)
(0.0167452 -0.000636759 2.82458e-23)
(0.0188984 -0.000423758 -4.76407e-26)
(0.0200573 -0.000156941 -1.48065e-24)
(0.0200639 0.000130194 1.9761e-24)
(0.0189171 0.000399764 -2.348e-23)
(0.0167731 0.000617673 3.08167e-23)
(0.0139187 0.000761044 -7.61897e-23)
(0.0107221 0.000823285 0)
(0.0075667 0.000814767 -9.0079e-24)
(0.00478214 0.000757859 1.76897e-22)
(0.00258692 0.000677297 -8.55382e-23)
(0.00106013 0.000589899 -3.53812e-26)
(0.000151428 0.000499569 -1.14845e-25)
(-0.00027587 0.000400598 5.72875e-23)
(-0.000387979 0.000289223 4.31267e-23)
(-0.000333669 0.000176518 2.18961e-23)
(-0.000216883 7.68029e-05 1.95328e-25)
(-7.78017e-05 6.818e-06 0)
(-0.000107009 -1.10142e-05 0)
(-0.000268501 -9.19859e-05 1.18499e-23)
(-0.000369099 -0.000193758 -6.3832e-23)
(-0.000379041 -0.000308501 -4.89865e-23)
(-0.000178819 -0.000424044 -6.24966e-23)
(0.000390566 -0.000534506 1.09378e-24)
(0.00149468 -0.000648591 -1.17915e-24)
(0.00325893 -0.000771367 0)
(0.00571338 -0.000893324 -7.50679e-23)
(0.00875495 -0.000988476 7.23788e-23)
(0.0121437 -0.00102195 -7.9226e-23)
(0.0155354 -0.000963089 5.5364e-25)
(0.0185395 -0.000797242 -5.15565e-23)
(0.0207869 -0.000531887 0)
(0.0219918 -0.000195945 0)
(0.0219984 0.000166449 -2.04531e-24)
(0.0208059 0.000505466 1.89314e-25)
(0.018568 0.000776309 -4.22908e-24)
(0.0155693 0.000948923 7.6066e-23)
(0.0121785 0.00101454 7.5043e-23)
(0.00878659 0.000986705 -1.64841e-22)
(0.00573892 0.000895414 -8.58009e-23)
(0.00327705 0.000775408 1.24032e-24)
(0.00150567 0.000652991 -1.1677e-24)
(0.000395917 0.000538251 -6.88117e-23)
(-0.000177103 0.000426719 -5.97384e-23)
(-0.000379101 0.000310139 -4.52309e-23)
(-0.000369669 0.000194627 -3.3697e-23)
(-0.000268977 9.23841e-05 -1.79425e-25)
(-0.000107197 1.11586e-05 1.35806e-25)
(-0.00014169 -1.61639e-05 2.1138e-23)
(-0.000321193 -0.000107187 5.90889e-24)
(-0.00039247 -0.00021039 7.48798e-23)
(-0.00034296 -0.000329241 5.04813e-23)
(-3.39787e-05 -0.000452258 6.40276e-23)
(0.000701664 -0.000579198 -1.07926e-24)
(0.00202619 -0.000721986 1.15933e-24)
(0.00405133 -0.000882869 0)
(0.0067847 -0.00104521 7.58851e-23)
(0.0100979 -0.00117345 -7.42148e-23)
(0.0137288 -0.00122345 0)
(0.0173184 -0.00115808 0)
(0.0204696 -0.000960529 2.38253e-23)
(0.0228127 -0.000640914 3.33967e-26)
(0.0240643 -0.000235109 7.60331e-25)
(0.0240711 0.000202814 4.6619e-26)
(0.0228319 0.000612007 -4.63849e-26)
(0.0204986 0.00093768 -2.6638e-23)
(0.0173532 0.00114272 5.85809e-23)
(0.0137649 0.00121561 -1.41112e-22)
(0.0101311 0.00117192 7.93724e-23)
(0.00681207 0.00104803 -1.13335e-24)
(0.00407125 0.000887897 7.05763e-23)
(0.00203872 0.000727418 0)
(0.000708109 0.000583853 1.09545e-24)
(-3.16498e-05 0.000455634 -1.00153e-24)
(-0.000342803 0.000331356 0)
(-0.000393065 0.000211549 7.38814e-23)
(-0.000321789 0.000107747 0)
(-0.000141956 1.63847e-05 2.12606e-23)
(-0.000180837 -2.21429e-05 -2.25025e-23)
(-0.000370576 -0.000121719 3.13797e-23)
(-0.00039742 -0.000226089 -4.09092e-23)
(-0.000272357 -0.000351047 9.23936e-25)
(0.000165993 -0.000484339 -1.02912e-24)
(0.00108951 -0.000632013 7.00654e-23)
(0.00265448 -0.000807517 -2.17067e-24)
(0.0049572 -0.00100883 1.09814e-24)
(0.00798199 -0.00121149 6.03496e-23)
(0.0115754 -0.00137049 -8.99537e-25)
(0.0154542 -0.00143334 -5.10901e-23)
(0.0192456 -0.00135767 7.9628e-26)
(0.0225466 -0.00112554 1.73848e-23)
(0.0249872 -0.000750174 -2.7566e-26)
(0.0262866 -0.00027421 -7.69791e-25)
(0.0262934 0.000239072 -4.1186e-26)
(0.0250067 0.000718727 1.85658e-25)
(0.022576 0.00110071 2.08041e-23)
(0.0192812 0.00134105 -8.55249e-24)
(0.0154914 0.001425 8.88706e-24)
(0.0116102 0.00136916 0)
(0.00801114 0.00121505 -6.34374e-23)
(0.00497891 0.00101492 -1.37937e-22)
(0.00266857 0.000814095 1.05058e-24)
(0.00109713 0.000637716 6.96303e-23)
(0.000169022 0.000488552 -1.02499e-24)
(-0.000271917 0.000353753 0)
(-0.000398008 0.000227618 -4.11221e-23)
(-0.000371297 0.000122494 7.52641e-25)
(-0.000181199 2.24718e-05 -2.28314e-23)
(-0.000222792 -2.89069e-05 -2.16486e-23)
(-0.000411503 -0.000135305 -1.93721e-23)
(-0.00037731 -0.000241407 -4.80216e-23)
(-0.000159249 -0.000374856 0)
(0.000430409 -0.000521473 0)
(0.00156396 -0.000694129 -7.13999e-23)
(0.00338962 -0.000905833 1.09539e-24)
(0.00598675 -0.00114915 5.83863e-23)
(0.00931562 -0.00139133 -7.42956e-24)
(0.0131981 -0.00157827 4.836e-23)
(0.0173308 -0.00165016 5.31386e-23)
(0.0213282 -0.00156056 -6.31971e-25)
(0.024782 -0.00129129 -1.68554e-23)
(0.0273221 -0.000859081 0)
(0.0286703 -0.000313053 0)
(0.0286771 0.000275034 0)
(0.0273417 0.000825048 0)
(0.0248118 0.00126442 -2.03281e-23)
(0.0213645 0.00154261 -5.14038e-23)
(0.0173691 0.00164127 1.08303e-22)
(0.0132343 0.00157712 5.52434e-23)
(0.00934647 0.00139564 6.15051e-24)
(0.00601022 0.00115636 7.05217e-24)
(0.00340532 0.000913667 1.05663e-25)
(0.00157281 0.000701021 -2.28212e-24)
(0.000434221 0.00052667 3.86875e-26)
(-0.000158458 0.000378283 -9.74038e-25)
(-0.000377852 0.000243405 0)
(-0.000412351 0.000136361 0)
(-0.000223269 2.93856e-05 0)
(-0.000264976 -3.64141e-05 4.25125e-23)
(-0.000437679 -0.000147836 -7.4923e-23)
(-0.000324693 -0.000257087 4.885e-23)
(5.24122e-06 -0.000401622 -7.01436e-23)
(0.000769426 -0.000564791 0)
(0.00213565 -0.000766534 0)
(0.00424255 -0.00101731 0)
(0.00715101 -0.00130348 -5.91584e-23)
(0.0107967 -0.00158372 -1.0075e-22)
(0.0149773 -0.00179544 -5.10167e-23)
(0.0193702 -0.0018725 3.81624e-23)
(0.0235779 -0.00176552 2.98758e-25)
(0.0271874 -0.00145691 -1.21111e-23)
(0.0298291 -0.000967113 0)
(0.0312271 -0.000351464 0)
(0.0312339 0.000310534 0)
(0.0298488 0.000930452 1.11637e-25)
(0.0272175 0.00142793 1.57718e-23)
(0.0236147 0.00174618 0)
(0.0194095 0.00186299 -5.10088e-23)
(0.0150149 0.00179442 -5.47888e-23)
(0.0108292 0.00158879 5.76863e-23)
(0.00717622 0.00131185 6.09638e-23)
(0.00425986 0.00102651 6.17004e-23)
(0.00214581 0.000774754 -6.98063e-23)
(0.0007741 0.000571123 1.13747e-24)
(6.45518e-06 0.000405914 -8.38727e-26)
(-0.000325144 0.000259669 -8.38242e-25)
(-0.000438648 0.000149255 0)
(-0.000265585 3.70965e-05 0)
(-0.00030376 -4.46394e-05 -3.53512e-23)
(-0.000441645 -0.000159387 9.04171e-23)
(-0.00023127 -0.000273997 0)
(0.000230977 -0.000432269 7.2227e-23)
(0.0011941 -0.000615334 0)
(0.00281612 -0.000849995 0)
(0.00522506 -0.00114207 5.6406e-23)
(0.00846188 -0.00147123 0)
(0.0124373 -0.00178755 6.12689e-24)
(0.0169251 -0.00202058 -5.76806e-25)
(0.0215844 -0.00209897 -3.74595e-23)
(0.0260067 -0.00197141 -2.01127e-25)
(0.0297749 -0.00162156 2.26284e-23)
(0.0325201 -0.00107379 2.96296e-24)
(0.0339689 -0.000389286 0)
(0.0339758 0.000345422 0)
(0.0325399 0.00103447 9.91656e-26)
(0.0298052 0.00159043 -1.60669e-23)
(0.0260439 0.0019506 0)
(0.0216245 0.00208878 0)
(0.0169639 0.00201964 7.484e-25)
(0.0124713 0.00179335 -7.26947e-25)
(0.00848879 0.00148082 5.1636e-23)
(0.00524399 0.00115272 -6.24846e-23)
(0.00282762 0.000859678 1.12563e-24)
(0.00119971 0.00062296 -1.0474e-24)
(0.000232685 0.00043758 0)
(-0.000231581 0.000277296 -4.92861e-23)
(-0.000442721 0.000161266 -1.18757e-24)
(-0.000304519 4.55933e-05 1.49813e-23)
(-0.000334359 -5.35885e-05 1.57358e-23)
(-0.000414779 -0.000170217 -1.60601e-22)
(-8.78244e-05 -0.000293066 5.42667e-23)
(0.000528894 -0.000467648 8.28252e-23)
(0.00171645 -0.000674024 -1.25954e-24)
(0.00361779 -0.000945041 9.16588e-25)
(0.00634986 -0.00127998 -5.35521e-24)
(0.00993213 -0.00165163 -4.37144e-23)
(0.01425 -0.00200155 7.90014e-23)
(0.019054 -0.00225226 -4.97088e-25)
(0.0239858 -0.00232821 5.07732e-25)
(0.0286268 -0.00217711 1.15136e-23)
(0.0325567 -0.00178447 -1.89034e-23)
(0.0354073 -0.00117867 -2.98923e-24)
(0.0369077 -0.000426376 -1.06335e-25)
(0.0369146 0.000379561 -1.112e-24)
(0.035427 0.00113666 2.68804e-26)
(0.032587 0.00175115 -1.27958e-23)
(0.0286645 0.00215478 -1.57155e-23)
(0.0240266 0.00231727 0)
(0.019094 0.00225136 0)
(0.0142855 0.00200808 0)
(0.00996067 0.00166246 -5.22422e-23)
(0.00637042 0.00129216 8.07208e-25)
(0.00363068 0.00095632 1.11436e-24)
(0.00172306 0.000683105 -2.28671e-24)
(0.000531165 0.000474145 1.14314e-24)
(-8.79415e-05 0.000297229 4.73054e-25)
(-0.000415945 0.000172671 -5.40211e-23)
(-0.000335281 5.48979e-05 -1.6006e-23)
(-0.000350728 -6.33088e-05 0)
(-0.000347295 -0.000180744 2.34049e-22)
(0.000115869 -0.00031521 -3.928e-25)
(0.00091109 -0.000508515 -8.40583e-23)
(0.00234951 -0.000741638 -7.26884e-23)
(0.00455412 -0.00105196 1.10399e-24)
(0.00763063 -0.00143065 -5.44899e-23)
(0.0115753 -0.00184373 8.48245e-23)
(0.0162482 -0.00222438 -3.7726e-23)
(0.0213772 -0.00248901 2.80684e-23)
(0.0265874 -0.00255887 2.55595e-25)
(0.0314511 -0.00238155 -1.15704e-23)
(0.0355451 -0.00194491 8.82078e-24)
(0.0385027 -0.00128134 -2.14162e-24)
(0.0400557 -0.000462598 1.18743e-25)
(0.0400625 0.000412824 2.13093e-24)
(0.0385224 0.00123662 8.18142e-26)
(0.0355755 0.00190935 1.27842e-23)
(0.031489 0.00235765 1.55629e-23)
(0.0266288 0.00254712 2.47784e-25)
(0.0214182 0.00248809 6.07631e-25)
(0.0162851 0.00223161 -5.9242e-25)
(0.0116055 0.00185583 4.32492e-23)
(0.00765279 0.00144444 0)
(0.00456843 0.00106495 -6.14966e-23)
(0.00235719 0.000752333 0)
(0.000913992 0.000516372 8.66621e-23)
(0.000116002 0.000320402 5.38348e-23)
(-0.000348524 0.000183907 5.67473e-23)
(-0.000351824 6.50746e-05 -4.14906e-24)
(-0.000345486 -7.38952e-05 -2.01084e-23)
(-0.000228223 -0.000191514 -1.25448e-22)
(0.000391164 -0.000341278 -5.6327e-23)
(0.00139091 -0.000555514 0)
(0.00310741 -0.000818784 1.4403e-22)
(0.00563959 -0.00117077 -5.89748e-23)
(0.00908198 -0.0015935 -1.55537e-24)
(0.0134059 -0.0020464 -3.08655e-24)
(0.0184461 -0.00245461 0)
(0.0239085 -0.00272934 -2.86212e-23)
(0.0294025 -0.00278963 3.89965e-25)
(0.0344924 -0.00258372 -1.31729e-25)
(0.0387529 -0.00210217 1.76964e-25)
(0.0418189 -0.0013814 2.04999e-25)
(0.043425 -0.000497821 -1.42927e-26)
(0.0434318 0.000445089 -1.02181e-24)
(0.0418384 0.00133395 -3.92218e-24)
(0.0387832 0.00206435 -7.62833e-26)
(0.0345305 0.00255818 0)
(0.0294444 0.002777 0)
(0.0239503 0.00272834 0)
(0.0184842 0.00246251 0)
(0.0134375 0.00205978 -4.45554e-23)
(0.00910571 0.00160897 7.11847e-25)
(0.00565533 0.00118561 6.37674e-23)
(0.0031162 0.000831252 -1.01684e-24)
(0.00139451 0.00056491 -8.91771e-23)
(0.000391604 0.000347676 -1.62897e-24)
(-0.000229484 0.000195538 -6.16122e-23)
(-0.000346762 7.6237e-05 2.36328e-23)
(-0.000309838 -8.5492e-05 2.12619e-23)
(-4.5373e-05 -0.000203152 -1.5185e-24)
(0.000750669 -0.000371999 6.12208e-23)
(0.001983 -0.000609166 0)
(0.00400537 -0.000905883 -7.23436e-23)
(0.00688975 -0.00130127 6.01582e-23)
(0.0107195 -0.00176774 4.45107e-23)
(0.0154391 -0.0022584 -2.31351e-24)
(0.0208584 -0.00269071 -2.72626e-23)
(0.026662 -0.00297175 -2.3601e-23)
(0.0324449 -0.00301917 2.04449e-25)
(0.037764 -0.00278258 3.12345e-26)
(0.0421928 -0.00225557 1.63136e-25)
(0.0453683 -0.00147846 3.66767e-24)
(0.0470281 -0.000531922 1.33636e-26)
(0.0470347 0.000476239 0)
(0.0453876 0.00142829 4.06873e-24)
(0.042223 0.00221547 -7.36166e-26)
(0.037802 0.00275537 0)
(0.0324871 0.00300561 0)
(0.0267045 0.00297061 5.26623e-25)
(0.0208976 0.00269925 -3.43995e-23)
(0.0154721 0.00227304 -3.8632e-23)
(0.0107447 0.00178494 -4.59091e-23)
(0.00690693 0.00131806 2.23534e-25)
(0.00401532 0.000920278 6.93977e-23)
(0.00198736 0.000620283 9.69817e-23)
(0.000751475 0.00037979 1.69116e-24)
(-4.66286e-05 0.000208205 -6.27288e-25)
(-0.000311297 8.8548e-05 -6.09703e-23)
(-0.000233503 -9.82882e-05 0)
(0.000214733 -0.000216306 0)
(0.00120839 -0.000407948 -6.16078e-23)
(0.00270342 -0.000669869 1.33627e-24)
(0.00505982 -0.00100315 -7.03364e-23)
(0.00832127 -0.00144302 5.97342e-23)
(0.0125595 -0.0019524 -4.58111e-23)
(0.0176908 -0.00247831 -3.44818e-23)
(0.0235004 -0.00293112 2.71742e-23)
(0.0296524 -0.00321469 1.02954e-24)
(0.0357284 -0.00324619 -1.97309e-23)
(0.0412793 -0.00297717 0)
(0.0458777 -0.00240445 0)
(0.0491634 -0.00157216 -1.80393e-24)
(0.0508772 -0.000564777 0)
(0.0508838 0.000506162 2.3267e-26)
(0.0491825 0.00151927 -2.32074e-26)
(0.0459076 0.00236204 1.10362e-23)
(0.0413172 0.00294824 0)
(0.0357708 0.00323165 0)
(0.0296955 0.00321336 3.16416e-23)
(0.0235406 0.00294025 3.37485e-23)
(0.0177251 0.00249423 3.84611e-23)
(0.0125863 0.00197136 4.73216e-23)
(0.00833987 0.00146185 1.8599e-24)
(0.00507097 0.00101963 -7.16191e-23)
(0.00270859 0.000682891 -2.04619e-22)
(0.00120962 0.000417329 -6.29915e-23)
(0.000213525 0.000222572 4.19392e-24)
(-0.000235142 0.000102215 4.15041e-23)
(-0.000104636 -0.000112507 0)
(0.000566954 -0.000231601 0)
(0.00177986 -0.000449535 -7.05921e-23)
(0.0035696 -0.0007379 -1.08845e-22)
(0.00628836 -0.0011106 1.36031e-22)
(0.00995188 -0.00159533 -5.97877e-23)
(0.0146196 -0.00214633 -4.02954e-23)
(0.0201776 -0.00270465 3.17856e-23)
(0.026388 -0.00317421 0)
(0.0328947 -0.00345665 2.23555e-23)
(0.0392674 -0.00346941 4.11285e-23)
(0.0450518 -0.0031665 2.81486e-26)
(0.0498208 -0.00254816 1.61344e-25)
(0.053217 -0.00166212 -4.04324e-26)
(0.054985 -0.000596268 0)
(0.0549914 0.000534749 0)
(0.0532359 0.00160653 7.5298e-26)
(0.0498503 0.00250344 -2.26344e-23)
(0.0450894 0.00313583 1.35752e-23)
(0.0393098 0.00345383 3.05966e-23)
(0.0329382 0.00345507 -3.08969e-23)
(0.026429 0.00318388 -5.02566e-25)
(0.0202132 0.00272183 -3.76931e-23)
(0.0146477 0.0021671 8.4278e-25)
(0.00997191 0.0016163 5.95395e-23)
(0.00630073 0.00112929 -9.79608e-25)