/*--------------------------------*- C++ -*----------------------------------*\
| =========                 |                                                 |
| \\      /  F ield         | OpenFOAM: The Open Source CFD Toolbox           |
|  \\    /   O peration     | Version:  5.x                                   |
|   \\  /    A nd           | Web:      www.OpenFOAM.org                      |
|    \\/     M anipulation  |                                                 |
\*---------------------------------------------------------------------------*/
FoamFile
{
    version     2.0;
    format      ascii;
    class       volScalarField;
    location    "0.005";
    object      p;
}
// * * * * * * * * * * * * * * * * * * * * * * * * * * * * * * * * * * * * * //

dimensions      [0 2 -2 0 0 0 0];

internalField   nonuniform List<scalar> 
7200
(
-0.000126109
0.0304466
0.0946734
0.0889241
0.246432
0.0419758
0.658327
-0.532744
2.25137
-3.52753
8.86971
-15.9722
30.5158
-41.9962
36.9988
0.000567052
0.033607
0.0983878
0.0995008
0.245433
0.0801304
0.605107
-0.353096
1.88968
-2.64165
7.04777
-12.3594
24.8854
-35.7628
34.2821
0.0013699
0.0362142
0.102586
0.107406
0.249406
0.103411
0.585292
-0.256235
1.71392
-2.17048
6.06986
-10.2523
21.3072
-31.3747
32.4046
0.00211604
0.0389066
0.106674
0.11536
0.253809
0.124794
0.57208
-0.178185
1.58802
-1.82191
5.37473
-8.71739
18.5965
-27.7919
30.7046
0.00285406
0.0418292
0.110845
0.123803
0.258616
0.146143
0.56223
-0.107908
1.48695
-1.53246
4.82079
-7.47513
16.3592
-24.6606
29.1343
0.00360635
0.0449517
0.115193
0.132601
0.264095
0.16714
0.55606
-0.0450243
1.40822
-1.29414
4.38718
-6.48114
14.545
-21.9465
27.7026
0.00437902
0.0482529
0.119755
0.1417
0.270301
0.187793
0.55323
0.0118106
1.34764
-1.09632
4.05028
-5.68822
13.0999
-19.6176
26.399
0.00517768
0.0517258
0.124558
0.151097
0.27724
0.208257
0.55326
0.06419
1.301
-0.928123
3.78664
-5.04684
11.9567
-17.6273
25.2103
0.00600819
0.0553653
0.129628
0.160797
0.284915
0.228666
0.555789
0.113321
1.26523
-0.781308
3.57872
-4.5179
11.0561
-15.9322
24.1258
0.00687584
0.0591675
0.13498
0.170805
0.29333
0.24913
0.560553
0.160109
1.23824
-0.649748
3.41362
-4.07178
10.348
-14.494
23.1362
0.0077851
0.063129
0.140628
0.181129
0.30248
0.269743
0.567354
0.205258
1.21854
-0.52889
3.28165
-3.68618
9.78951
-13.2777
22.233
0.00873947
0.0672471
0.14658
0.191777
0.312361
0.290584
0.576047
0.249324
1.2051
-0.415436
3.17548
-3.3447
9.34484
-12.2518
21.4087
0.00974146
0.071519
0.152842
0.202753
0.322967
0.311717
0.58652
0.29274
1.19718
-0.307097
3.0895
-3.03577
8.98425
-11.3876
20.6563
0.0107926
0.0759414
0.159415
0.214061
0.334286
0.333196
0.598684
0.335835
1.19419
-0.202379
3.01935
-2.75155
8.68375
-10.6596
19.9692
0.0118934
0.0805104
0.166296
0.2257
0.346304
0.355057
0.61246
0.378841
1.19564
-0.100411
2.96154
-2.48704
8.42437
-10.0448
19.3414
0.0130435
0.0852206
0.173477
0.237664
0.359
0.37732
0.627763
0.421898
1.20104
-0.000797517
2.9132
-2.23926
8.19157
-9.52317
18.767
0.0142415
0.0900652
0.18095
0.249943
0.372343
0.399987
0.644494
0.465058
1.20991
0.0965014
2.87192
-2.00663
7.97456
-9.07697
18.2406
0.0154853
0.0950356
0.188698
0.26252
0.386296
0.42304
0.662535
0.508288
1.2217
0.191293
2.83563
-1.78844
7.76574
-8.69103
17.7571
0.0167715
0.100121
0.196702
0.27537
0.400809
0.446435
0.681738
0.551478
1.23586
0.283204
2.80256
-1.58444
7.56008
-8.35239
17.3116
0.0180962
0.105308
0.204937
0.288459
0.41582
0.470107
0.701928
0.594456
1.25179
0.371752
2.77122
-1.39457
7.35461
-8.05019
16.8994
0.0194544
0.110581
0.213372
0.301747
0.431254
0.493968
0.722903
0.636993
1.26889
0.456438
2.74036
-1.2187
7.1479
-7.77548
16.5163
0.0208403
0.115921
0.221973
0.315185
0.447024
0.517908
0.744439
0.678824
1.28656
0.536811
2.70898
-1.05661
6.93967
-7.521
16.1583
0.022247
0.121308
0.230699
0.328713
0.463032
0.541799
0.766291
0.719659
1.30426
0.612417
2.67632
-0.907855
6.73038
-7.28105
15.8216
0.0236672
0.126718
0.239505
0.342267
0.479167
0.565498
0.788207
0.759219
1.32144
0.682917
2.64185
-0.771785
6.52098
-7.05119
15.5028
0.0250926
0.132124
0.248343
0.355775
0.495313
0.58885
0.809929
0.797199
1.33765
0.748065
2.60529
-0.647579
6.31266
-6.82817
15.1986
0.0265144
0.1375
0.257158
0.369157
0.511346
0.611697
0.831204
0.833336
1.3525
0.807721
2.5665
-0.534284
6.10663
-6.60963
14.9064
0.0279232
0.142815
0.265895
0.382334
0.52714
0.633878
0.85179
0.867391
1.36568
0.861844
2.52556
-0.430866
5.90404
-6.39403
14.6234
0.0293092
0.148038
0.274497
0.395221
0.542568
0.655237
0.871463
0.899161
1.37692
0.910494
2.48264
-0.336274
5.70588
-6.18041
14.3474
0.0306624
0.153138
0.282905
0.407734
0.557507
0.675625
0.890023
0.928484
1.38608
0.953813
2.43802
-0.249491
5.51291
-5.96831
14.0764
0.0319727
0.158082
0.29106
0.41979
0.571836
0.694905
0.907293
0.955241
1.39304
0.992012
2.39202
-0.169572
5.32567
-5.75763
13.8086
0.0332302
0.162839
0.298906
0.43131
0.585444
0.712955
0.923125
0.979352
1.39777
1.02535
2.34501
-0.0956806
5.14449
-5.54852
13.5426
0.0344251
0.167378
0.306387
0.442217
0.598229
0.729667
0.937401
1.00078
1.40027
1.05413
2.29733
-0.0271068
4.96949
-5.34131
13.277
0.0355479
0.17167
0.31345
0.452441
0.610098
0.744952
0.950027
1.01951
1.4006
1.07865
2.24931
0.0367267
4.80062
-5.13645
13.0109
0.0365899
0.175686
0.320047
0.461919
0.620971
0.758737
0.960939
1.03558
1.39881
1.09922
2.20121
0.0962646
4.6377
-4.93442
12.7435
0.0375429
0.179401
0.326135
0.470595
0.630779
0.770969
0.970093
1.04904
1.39502
1.11614
2.15327
0.151829
4.48045
-4.73573
12.474
0.0383992
0.182792
0.331672
0.478418
0.639465
0.781606
0.977467
1.05994
1.38931
1.12968
2.10564
0.203638
4.32853
-4.54086
12.2022
0.0391523
0.185837
0.336625
0.485348
0.646985
0.790624
0.983056
1.06836
1.3818
1.14008
2.05843
0.251819
4.18155
-4.35026
11.9276
0.0397963
0.18852
0.340964
0.491353
0.653303
0.798012
0.986867
1.07439
1.37257
1.14756
2.01169
0.296436
4.03914
-4.16435
11.6502
0.0403265
0.190825
0.344666
0.496406
0.658396
0.803769
0.988922
1.07811
1.36173
1.15231
1.96542
0.337506
3.90092
-3.98345
11.3698
0.0407388
0.19274
0.347711
0.50049
0.66225
0.807907
0.989249
1.07962
1.34934
1.15446
1.91957
0.375019
3.76654
-3.80786
11.0867
0.0410303
0.194256
0.350086
0.503593
0.664861
0.810443
0.987882
1.07901
1.33548
1.15416
1.87411
0.408956
3.6357
-3.6378
10.801
0.0411988
0.195368
0.351782
0.505712
0.666232
0.811403
0.984862
1.07635
1.3202
1.15152
1.82893
0.4393
3.50812
-3.47342
10.5128
0.0412434
0.196072
0.352796
0.50685
0.666372
0.81082
0.980235
1.07173
1.30357
1.14661
1.78396
0.466052
3.38357
-3.31483
10.2226
0.0411637
0.196368
0.35313
0.507014
0.6653
0.808733
0.974048
1.06523
1.28561
1.13953
1.73912
0.489232
3.26187
-3.16208
9.93066
0.0409604
0.19626
0.352788
0.50622
0.66304
0.805186
0.966353
1.05693
1.26639
1.13036
1.69433
0.50889
3.14287
-3.01515
9.63734
0.040635
0.195752
0.351782
0.504487
0.659621
0.800228
0.957207
1.04692
1.24595
1.11918
1.64953
0.525105
3.02646
-2.87399
9.34305
0.0401899
0.194853
0.350126
0.501841
0.655081
0.793914
0.946672
1.03528
1.22433
1.10607
1.60467
0.537986
2.91255
-2.73852
9.04819
0.0396283
0.193573
0.347839
0.498313
0.649462
0.786304
0.934812
1.02208
1.20159
1.09114
1.55975
0.547673
2.80108
-2.60857
8.75314
0.0389541
0.191926
0.344944
0.493938
0.642813
0.777465
0.921701
1.00744
1.17779
1.07448
1.51474
0.554332
2.69203
-2.48399
8.45828
0.0381722
0.189927
0.341467
0.488758
0.635186
0.767468
0.907416
0.991432
1.15302
1.05622
1.46969
0.558151
2.58536
-2.36458
8.16397
0.0372879
0.187594
0.337441
0.482819
0.626645
0.756392
0.892045
0.974178
1.12735
1.03649
1.42462
0.559339
2.48107
-2.25009
7.87052
0.0363076
0.184948
0.332899
0.476173
0.617253
0.744322
0.87568
0.955788
1.10088
1.01542
1.3796
0.558122
2.37916
-2.14028
7.57822
0.0352383
0.182013
0.327881
0.468876
0.607085
0.731349
0.858423
0.936383
1.07372
0.99318
1.33472
0.554737
2.27963
-2.03487
7.28733
0.0340876
0.178812
0.322429
0.460989
0.596219
0.717572
0.840382
0.916095
1.046
0.969927
1.29005
0.549431
2.18249
-1.93359
6.99807
0.0328641
0.175373
0.316589
0.452578
0.584739
0.703096
0.821675
0.895061
1.01783
0.945837
1.24572
0.542452
2.08775
-1.83613
6.71061
0.0315767
0.171726
0.310411
0.443714
0.572735
0.688031
0.802426
0.87343
0.989364
0.921095
1.20183
0.534055
1.9954
-1.7422
6.42508
0.0302352
0.167902
0.303947
0.434472
0.560303
0.672496
0.782766
0.851353
0.960748
0.895888
1.15851
0.524491
1.90547
-1.6515
6.14159
0.02885
0.163935
0.297254
0.42493
0.547543
0.656612
0.762834
0.828992
0.93214
0.870412
1.11589
0.514011
1.81796
-1.56373
5.86022
0.0274319
0.15986
0.29039
0.415173
0.53456
0.640507
0.742774
0.806513
0.903702
0.844866
1.07412
0.502861
1.73287
-1.47859
5.58102
0.0259926
0.155713
0.283416
0.405285
0.521464
0.624316
0.722736
0.784087
0.875607
0.81945
1.03333
0.491283
1.65022
-1.39579
5.30404
0.0245439
0.151532
0.276397
0.395356
0.508367
0.608174
0.702873
0.76189
0.848028
0.794369
0.993683
0.479515
1.57002
-1.31507
5.0293
0.0230984
0.147356
0.269397
0.385477
0.495385
0.592221
0.683343
0.740101
0.821145
0.769828
0.955325
0.46779
1.49231
-1.23617
4.75685
0.0216686
0.143226
0.262483
0.375743
0.482637
0.5766
0.664308
0.718903
0.795143
0.746038
0.918419
0.456337
1.41711
-1.15884
4.48675
0.0202678
0.139182
0.255724
0.366247
0.470243
0.561457
0.645932
0.69848
0.770208
0.723206
0.88313
0.445382
1.34449
-1.08287
4.21911
0.0189093
0.135265
0.249187
0.357086
0.458324
0.546937
0.628381
0.67902
0.746532
0.701546
0.849634
0.435151
1.27453
-1.00807
3.95407
0.0176063
0.131517
0.242942
0.348355
0.447001
0.533187
0.61182
0.660711
0.724309
0.681274
0.818113
0.42587
1.20733
-0.934251
3.69186
0.0163725
0.127979
0.237056
0.340149
0.436394
0.520352
0.596417
0.643742
0.703735
0.662608
0.788762
0.417767
1.14304
-0.861295
3.43282
0.015221
0.12469
0.231596
0.332563
0.426624
0.508578
0.582337
0.628303
0.685012
0.645772
0.761786
0.411074
1.08183
-0.789097
3.17739
0.0141649
0.12169
0.226629
0.325686
0.417806
0.498006
0.569746
0.614582
0.668341
0.630993
0.737404
0.406031
1.02393
-0.717597
2.92618
0.0132169
0.119017
0.222215
0.319608
0.410054
0.488775
0.558805
0.602767
0.653926
0.618503
0.715849
0.402886
0.969639
-0.646782
2.68
0.012389
0.116706
0.218416
0.314412
0.403476
0.481018
0.549671
0.593044
0.641972
0.60854
0.697369
0.401895
0.919286
-0.576692
2.43991
0.0116925
0.11479
0.215286
0.310176
0.398173
0.474862
0.542495
0.585592
0.632683
0.601343
0.682225
0.403329
0.873281
-0.507433
2.20725
0.0111375
0.113299
0.212876
0.306973
0.394239
0.470426
0.537421
0.580587
0.626261
0.597157
0.67069
0.407471
0.832101
-0.439184
1.98372
0.0107332
0.112259
0.211231
0.304867
0.39176
0.467819
0.534583
0.578196
0.622902
0.596227
0.663053
0.414617
0.796297
-0.372226
1.77149
0.0104869
0.111693
0.210388
0.303912
0.39081
0.467138
0.534103
0.578575
0.622797
0.598798
0.659609
0.425077
0.766505
-0.306982
1.57324
0.0104035
0.111615
0.210374
0.304149
0.391444
0.468457
0.536077
0.581854
0.626109
0.605088
0.66064
0.439139
0.743431
-0.244083
1.39231
0.0104855
0.112032
0.211204
0.305601
0.393695
0.471824
0.540569
0.588128
0.632956
0.615291
0.666372
0.457124
0.727716
-0.184198
1.23256
0.0107426
0.112977
0.212939
0.30836
0.39769
0.477413
0.547798
0.597691
0.643673
0.629906
0.677273
0.479848
0.720186
-0.127658
1.09858
0.0111976
0.114532
0.215735
0.312668
0.403775
0.485687
0.55839
0.611313
0.659324
0.64997
0.695225
0.507961
0.725114
-0.0787206
1.00067
0.0116618
0.11612
0.218633
0.31716
0.410211
0.494443
0.569916
0.62578
0.677368
0.670355
0.720093
0.530573
0.752886
-0.0625761
0.961214
-37.0822
41.9136
-30.5965
15.8935
-8.94687
3.45064
-2.32763
0.456162
-0.734817
-0.118578
-0.322918
-0.165293
-0.170796
-0.106192
-0.0751482
-0.0256818
0.0053569
0.069961
0.0644371
0.222064
0.0175936
0.633733
-0.557806
2.22576
-3.55328
8.84486
-15.9942
30.4968
-42.0076
36.9904
-34.3656
35.68
-24.9665
12.2803
-7.12515
2.56466
-1.96599
0.276532
-0.681597
-0.156731
-0.321935
-0.175892
-0.174547
-0.109427
-0.0760683
-0.0247514
0.00860217
0.0737194
0.0750399
0.221071
0.0557203
0.580441
-0.378243
1.86408
-2.66715
7.02359
-12.3805
24.868
-35.773
34.275
-32.4882
31.2917
-21.3887
10.1727
-6.14753
2.09331
-1.79032
0.17966
-0.661788
-0.180019
-0.32593
-0.183829
-0.178796
-0.112133
-0.0770801
-0.0237244
0.0113223
0.07798
0.082983
0.225056
0.0789729
0.560558
-0.281441
1.6884
-2.19558
6.04651
-10.2723
21.2913
-31.3837
32.3986
-30.7883
27.7088
-18.6783
8.63732
-5.45275
1.74451
-1.66455
0.101564
-0.648596
-0.20142
-0.330362
-0.191826
-0.182948
-0.11494
-0.0780165
-0.0227673
0.0141478
0.0821479
0.0909879
0.229479
0.100339
0.547301
-0.203388
1.5627
-1.84647
5.35234
-8.73606
18.5822
-27.7998
30.6992
-29.2181
24.5774
-16.4413
7.39462
-4.89918
1.45477
-1.56366
0.0312044
-0.63879
-0.222799
-0.335209
-0.200321
-0.187194
-0.117983
-0.0789207
-0.0218361
0.0172171
0.0864161
0.0994965
0.234321
0.121691
0.537452
-0.133023
1.46195
-1.55634
4.79947
-7.49251
16.3463
-24.6676
29.1295
-27.7864
21.8633
-14.6273
6.40021
-4.46595
1.21613
-1.48515
-0.0318008
-0.632687
-0.243844
-0.340739
-0.209183
-0.191628
-0.121228
-0.0798208
-0.020902
0.0204951
0.090879
0.108379
0.239856
0.142722
0.53134
-0.0699526
1.38367
-1.31721
4.367
-6.49723
14.5335
-21.9528
27.6982
-26.4828
19.5342
-13.1823
5.60694
-4.12941
1.01796
-1.42483
-0.088794
-0.629952
-0.264563
-0.34701
-0.218356
-0.196285
-0.124653
-0.0807307
-0.0199511
0.0239599
0.095572
0.11758
0.246141
0.163449
0.528636
-0.0128299
1.32366
-1.11849
4.03126
-5.70309
13.0895
-19.6232
26.3949
-25.2942
17.5439
-12.0392
4.96525
-3.86612
0.849413
-1.37846
-0.141365
-0.630104
-0.285113
-0.354028
-0.227839
-0.201192
-0.128251
-0.0816614
-0.0189715
0.0276053
0.100523
0.127101
0.253188
0.184033
0.528866
0.0399366
1.27769
-0.949332
3.76877
-5.06057
11.9473
-17.6325
25.2066
-24.2097
15.8488
-11.1386
4.43605
-3.65852
0.702245
-1.343
-0.190716
-0.632782
-0.30563
-0.361797
-0.237635
-0.206372
-0.132017
-0.0826227
-0.0179531
0.0314282
0.105758
0.136947
0.261005
0.204614
0.531671
0.0895471
1.24267
-0.801521
3.56196
-4.53059
11.0475
-15.937
24.1223
-23.22
14.4106
-10.4304
3.98971
-3.49372
0.570341
-1.31631
-0.237747
-0.63772
-0.326224
-0.370321
-0.247753
-0.211844
-0.13595
-0.0836226
-0.0168873
0.0354263
0.111294
0.147127
0.269597
0.225304
0.536785
0.136896
1.21649
-0.668957
3.39793
-4.08353
10.3401
-14.4985
23.1328
-22.3168
13.1943
-9.87194
3.60392
-3.36201
0.449153
-1.29692
-0.283156
-0.644718
-0.346986
-0.379598
-0.258199
-0.217621
-0.140047
-0.0846676
-0.0157674
0.0395984
0.117146
0.157652
0.278964
0.2462
0.544008
0.182673
1.19764
-0.547107
3.26695
-3.69708
9.78225
-13.282
22.2298
-21.4925
12.1683
-9.42722
3.26229
-3.25606
0.335389
-1.28378
-0.327492
-0.653625
-0.367995
-0.389622
-0.268981
-0.22371
-0.144306
-0.0857625
-0.0145879
0.0439432
0.123324
0.168528
0.289104
0.267378
0.553185
0.227421
1.18507
-0.432691
3.1617
-3.35485
9.3381
-12.2558
21.4057
-20.7401
11.3042
-9.06658
2.95322
-3.17028
0.226762
-1.27615
-0.371184
-0.664327
-0.389315
-0.400385
-0.280104
-0.230119
-0.148726
-0.086911
-0.0133448
0.0484596
0.129833
0.179764
0.300009
0.288902
0.564197
0.271558
1.17801
-0.32343
3.07657
-3.04524
8.97796
-11.3915
20.6534
-20.053
10.5762
-8.76602
2.66888
-3.1003
0.121778
-1.27344
-0.414557
-0.676731
-0.410995
-0.411877
-0.291571
-0.236847
-0.153304
-0.0881155
-0.0120354
0.0531454
0.136677
0.191362
0.311669
0.310819
0.576946
0.315398
1.17588
-0.217837
3.0072
-2.76041
8.67784
-10.6634
19.9664
-19.4251
9.96141
-8.50658
2.40427
-3.04264
0.0195662
-1.27516
-0.457838
-0.690754
-0.43307
-0.424082
-0.30338
-0.243893
-0.158037
-0.0893771
-0.0106583
0.0579975
0.143852
0.203322
0.324067
0.333161
0.591342
0.359162
1.17817
-0.115044
2.95011
-2.49536
8.41879
-10.0486
19.3386
-18.8507
9.43974
-8.27371
2.1564
-2.99443
-0.0802694
-1.28082
-0.501164
-0.706309
-0.455557
-0.436976
-0.315527
-0.25125
-0.162919
-0.090696
-0.00921327
0.0630112
0.151352
0.215638
0.337177
0.355942
0.60729
0.402978
1.18438
-0.0146585
2.90243
-2.24711
8.18626
-9.52684
18.7642
-18.3243
8.99353
-8.05665
1.9237
-2.95326
-0.17777
-1.28992
-0.544585
-0.723293
-0.478457
-0.450529
-0.328
-0.258908
-0.167945
-0.0920712
-0.00770126
0.06818
0.159168
0.228298
0.350969
0.379158
0.624684
0.446889
1.19403
0.0833618
2.86174
-2.01405
7.96948
-9.0806
18.2378
-17.8407
8.60756
-7.84778
1.70544
-2.91706
-0.272745
-1.30194
-0.588066
-0.741585
-0.501747
-0.4647
-0.34078
-0.266849
-0.173105
-0.0935006
-0.00612447
0.0734951
0.167281
0.241283
0.365398
0.402781
0.643394
0.490855
1.20656
0.178825
2.826
-1.79549
7.76085
-8.69464
17.7543
-17.3952
8.26889
-7.64208
1.50138
-2.88406
-0.364822
-1.3163
-0.631498
-0.761035
-0.525382
-0.479438
-0.353841
-0.275056
-0.17839
-0.0949811
-0.00448626
0.0789453
0.175673
0.254564
0.380412
0.426763
0.663267
0.534763
1.22142
0.27136
2.79342
-1.59117
7.55535
-8.356
17.3087
-16.983
7.96664
-7.43657
1.31145
-2.85279
-0.45352
-1.33242
-0.674705
-0.781469
-0.549297
-0.49468
-0.36715
-0.283501
-0.183784
-0.0965086
-0.00279119
0.0845165
0.184316
0.268108
0.395942
0.451033
0.684123
0.578435
1.23801
0.360487
2.76252
-1.40101
7.35
-8.05381
16.8965
-16.5999
7.69186
-7.22983
1.13553
-2.82198
-0.538342
-1.3497
-0.717462
-0.802682
-0.573399
-0.510349
-0.380665
-0.292154
-0.189272
-0.0980777
-0.00104495
0.0901921
0.193178
0.281869
0.411911
0.475497
0.705754
0.621641
1.25575
0.445708
2.73207
-1.2249
7.14338
-7.77911
16.5134
-16.2419
7.43731
-7.02158
0.973383
-2.79065
-0.618838
-1.36753
-0.759502
-0.824448
-0.597579
-0.526356
-0.394334
-0.300979
-0.194836
-0.0996823
0.000745653
0.0959522
0.202223
0.295795
0.428226
0.500041
0.727932
0.664114
1.27401
0.526576
2.70105
-1.0626
6.93522
-7.52466
16.1554
-15.9053
7.19726
-6.81228
0.824568
-2.75803
-0.694557
-1.38538
-0.800533
-0.846525
-0.621708
-0.542603
-0.408098
-0.309936
-0.200453
-0.101315
0.00257275
0.101775
0.211408
0.309824
0.444785
0.524532
0.750411
0.705561
1.29226
0.602638
2.66871
-0.913658
6.72598
-7.28473
15.8186
-15.5865
6.9673
-6.60289
0.688437
-2.72361
-0.76516
-1.4027
-0.840281
-0.868657
-0.64564
-0.558977
-0.42189
-0.318977
-0.206099
-0.102968
0.00442749
0.107634
0.220686
0.323888
0.461475
0.548824
0.772934
0.745707
1.30995
0.673557
2.63453
-0.777433
6.51662
-7.0549
15.4998
-15.2824
6.74414
-6.39458
0.564165
-2.68708
-0.830406
-1.41905
-0.878439
-0.890588
-0.669221
-0.575361
-0.435638
-0.328053
-0.211747
-0.104632
0.00630015
0.113502
0.230004
0.337912
0.478175
0.57276
0.795244
0.784243
1.32665
0.73909
2.59822
-0.653096
6.30833
-6.83191
15.1956
-14.9903
6.52547
-6.18859
0.450796
-2.64834
-0.890152
-1.43402
-0.914745
-0.912063
-0.692292
-0.591629
-0.449262
-0.337109
-0.217369
-0.106297
0.00818026
0.11935
0.239309
0.351816
0.494759
0.596178
0.817085
0.820908
1.34196
0.799097
2.55967
-0.539689
6.10231
-6.6134
14.9034
-14.7074
6.3097
-5.98604
0.347296
-2.60745
-0.944364
-1.44732
-0.948961
-0.932843
-0.714692
-0.607656
-0.462679
-0.346089
-0.222934
-0.107954
0.0100567
0.125145
0.24854
0.365514
0.511099
0.618917
0.838215
0.855463
1.35556
0.853542
2.51893
-0.436176
5.89974
-6.39782
14.6204
-14.4315
6.0959
-5.78794
0.252612
-2.56458
-0.993101
-1.45868
-0.980884
-0.952703
-0.736263
-0.623314
-0.475806
-0.354934
-0.228409
-0.109591
0.0119181
0.130856
0.25764
0.378921
0.527065
0.640818
0.85841
0.887706
1.3672
0.902486
2.4762
-0.341504
5.70158
-6.18422
14.3443
-14.1606
5.8836
-5.59504
0.165726
-2.52002
-1.03651
-1.46794
-1.01035
-0.971442
-0.756857
-0.638476
-0.488556
-0.363584
-0.233762
-0.111196
0.0137525
0.136447
0.266547
0.391952
0.542531
0.661732
0.87747
0.917476
1.37673
0.946074
2.43173
-0.254651
5.50861
-5.97213
14.0733
-13.893
5.67271
-5.40789
0.0856914
-2.47409
-1.0748
-1.47502
-1.03725
-0.988884
-0.776337
-0.653025
-0.500846
-0.37198
-0.23896
-0.11276
0.0155482
0.141886
0.2752
0.40452
0.557377
0.68152
0.895217
0.944654
1.38403
0.984519
2.38589
-0.17467
5.32138
-5.76146
13.8055
-13.6271
5.46338
-5.22682
0.0116727
-2.42716
-1.10823
-1.47985
-1.0615
-1.00488
-0.794579
-0.666847
-0.512595
-0.380064
-0.24397
-0.11427
0.0172934
0.147139
0.283541
0.416545
0.57149
0.700061
0.911505
0.969162
1.38907
1.01809
2.339
-0.100723
5.14021
-5.55235
13.5395
-13.3617
5.25594
-5.05193
-0.0570416
-2.37958
-1.13711
-1.48246
-1.08306
-1.01932
-0.811478
-0.67984
-0.523727
-0.387779
-0.24876
-0.115716
0.0189767
0.152173
0.291513
0.427949
0.584767
0.717246
0.926214
0.990962
1.39187
1.04707
2.29144
-0.0320976
4.96522
-5.34514
13.2739
-13.0958
5.05083
-4.8832
-0.121028
-2.33165
-1.16173
-1.48289
-1.10193
-1.0321
-0.826943
-0.691911
-0.53417
-0.395071
-0.253299
-0.117087
0.020587
0.156958
0.299062
0.43866
0.597114
0.732985
0.939253
1.01005
1.39247
1.07178
2.24353
0.0317856
4.79637
-5.14027
13.0078
-12.8285
4.84854
-4.72042
-0.180732
-2.28368
-1.18242
-1.48122
-1.11812
-1.04316
-0.840903
-0.702978
-0.543861
-0.401892
-0.257557
-0.118373
0.022114
0.161463
0.306139
0.448615
0.60845
0.747208
0.950557
1.02645
1.39094
1.09253
2.19554
0.0913724
4.63346
-4.93822
12.7404
-12.5592
4.64958
-4.56333
-0.236475
-2.23586
-1.19945
-1.47755
-1.1317
-1.05247
-0.853301
-0.712974
-0.552741
-0.408196
-0.261509
-0.119564
0.023548
0.165662
0.312696
0.457756
0.618706
0.759857
0.960083
1.04021
1.38739
1.10961
2.14769
0.146986
4.47623
-4.73951
12.471
-12.2875
4.45443
-4.41157
-0.288472
-2.18838
-1.21312
-1.47196
-1.14273
-1.05998
-0.8641
-0.72184
-0.560761
-0.413942
-0.26513
-0.120651
0.0248803
0.169531
0.318695
0.466032
0.627825
0.770895
0.967811
1.05141
1.3819
1.1233
2.10015
0.198845
4.32433
-4.54461
12.1991
-12.0132
4.26355
-4.26477
-0.336853
-2.14132
-1.22366
-1.46458
-1.15128
-1.06571
-0.873273
-0.729531
-0.567881
-0.419095
-0.268397
-0.121627
0.0261028
0.173047
0.3241
0.473403
0.635761
0.780297
0.973735
1.0601
1.3746
1.13385
2.05303
0.247079
4.17739
-4.35398
11.9245
-11.7359
4.07735
-4.12255
-0.381679
-2.09474
-1.23129
-1.45548
-1.15744
-1.06966
-0.88081
-0.736013
-0.574065
-0.423625
-0.271293
-0.122486
0.0272087
0.176191
0.32888
0.479835
0.642481
0.788052
0.977866
1.06639
1.36557
1.14147
2.00638
0.29175
4.03501
-4.16803
11.6471
-11.4558
3.89617
-3.98453
-0.422965
-2.04864
-1.23618
-1.44477
-1.16129
-1.07185
-0.88671
-0.741262
-0.579288
-0.427507
-0.273801
-0.12322
0.028192
0.178949
0.333011
0.485303
0.647961
0.79416
0.980224
1.07037
1.35491
1.14634
1.96019
0.332877
3.89683
-3.9871
11.3668
-11.1729
3.72029
-3.85037
-0.460702
-2.00298
-1.2385
-1.43252
-1.16293
-1.0723
-0.890985
-0.745264
-0.583532
-0.430722
-0.275908
-0.123825
0.0290481
0.181307
0.336473
0.489787
0.652188
0.798633
0.980838
1.07211
1.3427
1.14862
1.91443
0.370448
3.7625
-3.81146
11.0837
-10.8873
3.54994
-3.71974
-0.494866
-1.95771
-1.23836
-1.41881
-1.16245
-1.07107
-0.893652
-0.748014
-0.586786
-0.433256
-0.277605
-0.124297
0.029773
0.183255
0.339253
0.493277
0.655156
0.801489
0.979745
1.07172
1.32901
1.14845
1.86904
0.404446
3.6317
-3.64136
10.798
-10.5994
3.38528
-3.59238
-0.525442
-1.91273
-1.23588
-1.40368
-1.15992
-1.06817
-0.894738
-0.749516
-0.589045
-0.435099
-0.278885
-0.124633
0.030364
0.184787
0.341342
0.495769
0.656869
0.802755
0.976986
1.06927
1.3139
1.14592
1.82395
0.434852
3.50417
-3.47694
10.5099
-10.3093
3.22642
-3.46805
-0.552427
-1.86797
-1.23115
-1.3872
-1.15543
-1.06367
-0.894275
-0.749778
-0.590312
-0.436248
-0.279745
-0.124832
0.0308193
0.1859
0.342736
0.497266
0.657338
0.802464
0.972607
1.06485
1.29741
1.14112
1.77907
0.461668
3.37968
-3.3183
10.2197
-10.0175
3.07339
-3.34658
-0.575839
-1.82334
-1.22425
-1.36941
-1.14907
-1.0576
-0.892302
-0.74882
-0.590595
-0.436705
-0.280185
-0.124893
0.0311382
0.186593
0.343436
0.497776
0.65658
0.800656
0.966656
1.05855
1.27961
1.13416
1.73431
0.484913
3.25803
-3.1655
9.92779
-9.7244
2.92621
-3.2278
-0.595728
-1.77876
-1.21526
-1.35034
-1.1409
-1.05003
-0.888863
-0.746665
-0.589908
-0.436474
-0.280206
-0.124817
0.0313209
0.186868
0.343448
0.497314
0.654621
0.797375
0.959187
1.05043
1.26053
1.1251
1.6896
0.504636
3.13908
-3.01853
9.6345
-9.43028
2.7848
-3.1116
-0.612169
-1.73416
-1.20426
-1.33005
-1.13102
-1.041
-0.884007
-0.743344
-0.588273
-0.435567
-0.279814
-0.124604
0.0313687
0.186731
0.342783
0.4959
0.651492
0.792671
0.950257
1.0406
1.24023
1.11402
1.64488
0.520917
3.02272
-2.87733
9.34023
-9.13557
2.64909
-2.99791
-0.625271
-1.68952
-1.19133
-1.30859
-1.1195
-1.03057
-0.87779
-0.738893
-0.585714
-0.433998
-0.279017
-0.124258
0.0312834
0.186189
0.341455
0.49356
0.647228
0.786599
0.939927
1.02912
1.21874
1.10102
1.60011
0.533863
2.90886
-2.74181
9.0454
-8.84067
2.51893
-2.88665
-0.635171
-1.6448
-1.17657
-1.28601
-1.10644
-1.01882
-0.87027
-0.733355
-0.582263
-0.431786
-0.277827
-0.123781
0.0310681
0.185253
0.339482
0.490325
0.641873
0.779221
0.928264
1.01609
1.19613
1.08619
1.55526
0.543615
2.79744
-2.61182
8.75037
-8.54595
2.39414
-2.7778
-0.642032
-1.59999
-1.16009
-1.26237
-1.09191
-1.00581
-0.861516
-0.726779
-0.577956
-0.428956
-0.276257
-0.123179
0.0307265
0.183936
0.336889
0.48623
0.635475
0.770603
0.915341
1.0016
1.17246
1.06963
1.51033
0.550337
2.68844
-2.4872
8.45553
-8.25176
2.27454
-2.67132
-0.646042
-1.55513
-1.14199
-1.23774
-1.07603
-0.991625
-0.851598
-0.71922
-0.572834
-0.425534
-0.274324
-0.122457
0.0302633
0.182253
0.333701
0.481318
0.62809
0.760817
0.901236
0.98574
1.14781
1.05147
1.46536
0.554218
2.58182
-2.36774
8.16124
-7.95842
2.15989
-2.56722
-0.647409
-1.51025
-1.12241
-1.21221
-1.05889
-0.976348
-0.840596
-0.710738
-0.566946
-0.421553
-0.272045
-0.121621
0.0296839
0.180223
0.329951
0.475636
0.619778
0.749943
0.886036
0.968629
1.12225
1.03182
1.42036
0.555467
2.47758
-2.25322
7.86781
-7.66623
2.04993
-2.46548
-0.646357
-1.46541
-1.1015
-1.18588
-1.04061
-0.960073
-0.828594
-0.701401
-0.560344
-0.417048
-0.269444
-0.120678
0.0289945
0.177866
0.325674
0.469234
0.610606
0.738065
0.869835
0.950374
1.09589
1.01085
1.37542
0.554309
2.37571
-2.14337
7.57554
-7.37544
1.9444
-2.36611
-0.643121
-1.42069
-1.07939
-1.15886
-1.02131
-0.9429
-0.815686
-0.691281
-0.553084
-0.41206
-0.266543
-0.119637
0.0282021
0.175205
0.320907
0.462169
0.600647
0.725275
0.852733
0.9311
1.06884
0.988691
1.3306
0.550981
2.27623
-2.03793
7.28467
-7.08625
1.84302
-2.26911
-0.637945
-1.37618
-1.05627
-1.13125
-1.00112
-0.92494
-0.801969
-0.680459
-0.545229
-0.406632
-0.26337
-0.118507
0.0273144
0.172266
0.315695
0.454503
0.589979
0.711673
0.834842
0.910937
1.04122
0.965521
1.28601
0.545728
2.17913
-1.93661
6.99543
-6.79885
1.74548
-2.1745
-0.63108
-1.33198
-1.0323
-1.1032
-0.980175
-0.906309
-0.787548
-0.66902
-0.536846
-0.400812
-0.259954
-0.117298
0.0263399
0.169075
0.310083
0.446302
0.578688
0.697362
0.816277
0.890023
1.01315
0.941511
1.24173
0.538802
2.08443
-1.83912
6.70798
-6.51338
1.6515
-2.08227
-0.622777
-1.28822
-1.00766
-1.07484
-0.958629
-0.887131
-0.772537
-0.657054
-0.528007
-0.394652
-0.256324
-0.116021
0.0252877
0.165662
0.304121
0.437637
0.566863
0.682455
0.797163
0.868504
0.984778
0.916845
1.19791
0.530455
1.99212
-1.74516
6.42247
-6.22993
1.56077
-1.99244
-0.613288
-1.24501
-0.98255
-1.04632
-0.936633
-0.86754
-0.757052
-0.644659
-0.51879
-0.388204
-0.252515
-0.114686
0.0241677
0.162058
0.297862
0.428583
0.554601
0.667069
0.777632
0.846536
0.956252
0.891712
1.15464
0.520939
1.90223
-1.65443
6.139
-5.94858
1.473
-1.90501
-0.602862
-1.20249
-0.957156
-1.0178
-0.914346
-0.847673
-0.741217
-0.631936
-0.509273
-0.381528
-0.248562
-0.113308
0.0229902
0.158297
0.291362
0.41922
0.542002
0.651327
0.757822
0.824278
0.927729
0.866306
1.11209
0.510505
1.81475
-1.56663
5.85765
-5.66939
1.38788
-1.81999
-0.591746
-1.1608
-0.931678
-0.989445
-0.891936
-0.827675
-0.725162
-0.618991
-0.499541
-0.374683
-0.2445
-0.111897
0.0217665
0.154415
0.28468
0.40963
0.529171
0.635357
0.737878
0.801897
0.899372
0.840826
1.07037
0.499398
1.7297
-1.48146
5.57847
-5.3924
1.30514
-1.73739
-0.580182
-1.12008
-0.906318
-0.961421
-0.869573
-0.807697
-0.70902
-0.605935
-0.489683
-0.367732
-0.240369
-0.110468
0.0205082
0.150447
0.277878
0.3999
0.516218
0.619292
0.717949
0.779563
0.871354
0.815473
1.02963
0.487861
1.64708
-1.39864
5.3015
-5.11764
1.22449
-1.65722
-0.568407
-1.08048
-0.88128
-0.933905
-0.847436
-0.787893
-0.692929
-0.592882
-0.479788
-0.36074
-0.236208
-0.109033
0.0192274
0.146433
0.27102
0.390119
0.503256
0.603269
0.698189
0.757454
0.843847
0.790451
0.990031
0.476131
1.56691
-1.3179
5.02677
-4.84515
1.14569
-1.57952
-0.556655
-1.04216
-0.856772
-0.907079
-0.825702
-0.768423
-0.67703
-0.579949
-0.46995
-0.353775
-0.232058
-0.107608
0.0179367
0.142411
0.26417
0.380379
0.490402
0.587428
0.678757
0.735747
0.817033
0.765967
0.951718
0.464442
1.48922
-1.23897
4.75434
-4.57501
1.06849
-1.50433
-0.545156
-1.00528
-0.833002
-0.881125
-0.804557
-0.749448
-0.661467
-0.567255
-0.460263
-0.346905
-0.22796
-0.106206
0.0166491
0.138421
0.257397
0.370774
0.477773
0.571913
0.659814
0.714627
0.791095
0.742229
0.914854
0.453023
1.41405
-1.16163
4.48425
-4.3073
0.992665
-1.4317
-0.534137
-0.970002
-0.810181
-0.856234
-0.784185
-0.731133
-0.646386
-0.554923
-0.450823
-0.340198
-0.223956
-0.104842
0.0153779
0.134505
0.250767
0.3614
0.46549
0.556869
0.641524
0.694277
0.766221
0.719447
0.879605
0.442099
1.34146
-1.08564
4.21662
-4.04218
0.918027
-1.3617
-0.523824
-0.936504
-0.788522
-0.832596
-0.764775
-0.713646
-0.631934
-0.543073
-0.441728
-0.333724
-0.220089
-0.103529
0.0141367
0.130704
0.244351
0.352351
0.453674
0.542441
0.624052
0.674885
0.742602
0.697833
0.846146
0.431897
1.27152
-1.01081
3.9516
-3.77988
0.844404
-1.29446
-0.514446
-0.904971
-0.768244
-0.810408
-0.746515
-0.697153
-0.618258
-0.531828
-0.433072
-0.327553
-0.216399
-0.102283
0.0129392
0.127059
0.238218
0.343724
0.442448
0.528777
0.607567
0.656639
0.720431
0.677603
0.814659
0.422643
1.20434
-0.936981
3.6894
-3.52072
0.771659
-1.23011
-0.506231
-0.875597
-0.749566
-0.789867
-0.729598
-0.681822
-0.605505
-0.52131
-0.424953
-0.321752
-0.212929
-0.101116
0.0117991
0.123613
0.232434
0.335614
0.431932
0.516023
0.592234
0.63973
0.699907
0.658977
0.785339
0.414564
1.14007
-0.86401
3.43037
-3.26516
0.69969
-1.16883
-0.499415
-0.848591
-0.732712
-0.771175
-0.714212
-0.66782
-0.59382
-0.511637
-0.417464
-0.31639
-0.209718
-0.100042
0.0107301
0.120404
0.227069
0.328116
0.422245
0.504323
0.57822
0.624345
0.681229
0.642177
0.758392
0.407894
1.07887
-0.791798
3.17495
-3.01381
0.628436
-1.11085
-0.494238
-0.824173
-0.717913
-0.754536
-0.700547
-0.655313
-0.583346