/*--------------------------------*- C++ -*----------------------------------*\
| =========                 |                                                 |
| \\      /  F ield         | OpenFOAM: The Open Source CFD Toolbox           |
|  \\    /   O peration     | Version:  5.x                                   |
|   \\  /    A nd           | Web:      www.OpenFOAM.org                      |
|    \\/     M anipulation  |                                                 |
\*---------------------------------------------------------------------------*/
FoamFile
{
    version     2.0;
    format      ascii;
    class       surfaceScalarField;
    location    "0.005";
    object      phi;
}
// * * * * * * * * * * * * * * * * * * * * * * * * * * * * * * * * * * * * * //

dimensions      [0 3 -1 0 0 0 0];

internalField   nonuniform List<scalar> 
14230
(
-2.62468e-13
-2.95631e-15
-2.57351e-13
-5.11655e-15
-2.42914e-13
-1.44362e-14
-2.36157e-13
-6.75599e-15
-1.98786e-13
-3.73696e-14
-2.19634e-13
2.08494e-14
-1.0327e-13
-1.16363e-13
-2.69787e-13
1.6652e-13
1.37748e-13
-4.07532e-13
-5.45053e-13
6.82805e-13
6.98208e-13
-1.24326e-12
-1.08709e-12
1.7853e-12
9.78569e-13
-2.06565e-12
-3.72622e-13
1.35119e-12
-7.14806e-13
3.42184e-13
-7.79138e-13
-1.01429e-14
-7.59008e-13
-2.52453e-14
-7.23706e-13
-4.97367e-14
-6.82154e-13
-4.83064e-14
-6.13329e-13
-1.06194e-13
-5.77646e-13
-1.48309e-14
-4.30976e-13
-2.63031e-13
-5.18701e-13
2.54248e-13
-8.4788e-14
-8.41441e-13
-7.04825e-13
1.30285e-12
6.55332e-13
-2.60341e-12
-1.3668e-12
3.80744e-12
1.34427e-12
-4.77672e-12
-5.12318e-13
3.20778e-12
-1.90903e-12
6.81904e-13
-1.27668e-12
-2.11268e-14
-1.24172e-12
-6.02112e-14
-1.18655e-12
-1.04904e-13
-1.10944e-12
-1.25413e-13
-1.01436e-12
-2.01273e-13
-9.11258e-13
-1.17928e-13
-7.65921e-13
-4.08366e-13
-7.03245e-13
1.91575e-13
-4.04917e-13
-1.13977e-12
-6.35276e-13
1.53321e-12
2.21789e-13
-3.46047e-12
-1.03998e-12
5.06921e-12
1.20103e-12
-7.01772e-12
-4.56414e-13
4.86523e-12
-3.31293e-12
9.47488e-13
-1.75423e-12
-3.63679e-14
-1.70551e-12
-1.08932e-13
-1.62908e-12
-1.81337e-13
-1.52053e-12
-2.33957e-13
-1.39232e-12
-3.29479e-13
-1.23747e-12
-2.72784e-13
-1.06546e-12
-5.80373e-13
-9.06461e-13
3.25804e-14
-6.51741e-13
-1.39448e-12
-6.45661e-13
1.52713e-12
-8.3732e-14
-4.02239e-12
-7.46824e-13
5.73231e-12
1.05956e-12
-8.82411e-12
-3.74611e-13
6.2994e-12
-4.96206e-12
1.27453e-12
-2.21136e-12
-5.6029e-14
-2.14945e-12
-1.70847e-13
-2.05142e-12
-2.79363e-13
-1.91327e-12
-3.72107e-13
-1.74971e-12
-4.93038e-13
-1.5496e-12
-4.72892e-13
-1.33995e-12
-7.90014e-13
-1.10859e-12
-1.98783e-13
-8.55452e-13
-1.64761e-12
-6.91188e-13
1.36287e-12
-2.90748e-13
-4.42283e-12
-4.8618e-13
5.92774e-12
9.11828e-13
-1.02221e-11
-2.40968e-13
7.4522e-12
-6.86577e-12
1.66274e-12
-2.64737e-12
-8.01359e-14
-2.57262e-12
-2.45594e-13
-2.45311e-12
-3.9887e-13
-2.28636e-12
-5.38856e-13
-2.08697e-12
-6.92423e-13
-1.84475e-12
-7.15116e-13
-1.59299e-12
-1.04177e-12
-1.3014e-12
-4.90369e-13
-1.02801e-12
-1.921e-12
-7.4741e-13
1.08227e-12
-4.19809e-13
-4.75043e-12
-2.65361e-13
5.7733e-12
7.7241e-13
-1.12599e-11
-4.70947e-14
8.27171e-12
-9.02991e-12
2.11705e-12
-3.0613e-12
-1.08642e-13
-2.974e-12
-3.32897e-13
-2.83332e-12
-5.39541e-13
-2.63864e-12
-7.33539e-13
-2.40371e-12
-9.27345e-13
-2.12107e-12
-9.97759e-13
-1.8256e-12
-1.33723e-12
-1.48035e-12
-8.35618e-13
-1.1741e-12
-2.22725e-12
-8.00055e-13
7.08228e-13
-4.89003e-13
-5.06147e-12
-8.71492e-14
5.37145e-12
6.5892e-13
-1.20059e-11
2.13979e-13
8.71665e-12
-1.14576e-11
2.6417e-12
-3.45198e-12
-1.41463e-13
-3.35236e-12
-4.32511e-13
-3.19095e-12
-7.00955e-13
-2.96887e-12
-9.55614e-13
-2.69903e-12
-1.19718e-12
-2.37704e-12
-1.31975e-12
-2.03759e-12
-1.67668e-12
-1.64225e-12
-1.23095e-12
-1.2954e-12
-2.5741e-12
-8.40892e-13
2.53722e-13
-5.14991e-13
-5.38737e-12
5.34157e-14
4.80304e-12
5.87896e-13
-1.25404e-11
5.49375e-13
8.75517e-12
-1.41481e-11
3.23983e-12
-3.81796e-12
-1.78497e-13
-3.70627e-12
-5.44196e-13
-3.52459e-12
-8.82637e-13
-3.27564e-12
-1.20456e-12
-2.97166e-12
-1.50115e-12
-2.61114e-12
-1.68027e-12
-2.22801e-12
-2.05981e-12
-1.7846e-12
-1.67436e-12
-1.39229e-12
-2.96641e-12
-8.6603e-13
-2.72536e-13
-5.10798e-13
-5.7426e-12
1.67134e-13
4.12511e-12
5.75036e-13
-1.29483e-11
9.65317e-13
8.36489e-12
-1.70966e-11
3.91385e-12
-4.15754e-12
-2.19628e-13
-4.03404e-12
-6.67696e-13
-3.83259e-12
-1.08408e-12
-3.55731e-12
-1.47983e-12
-3.22001e-12
-1.83845e-12
-2.82172e-12
-2.07857e-12
-2.39545e-12
-2.48607e-12
-1.90524e-12
-2.16458e-12
-1.46469e-12
-3.40697e-12
-8.74081e-13
-8.6314e-13
-4.845e-13
-6.13218e-12
2.68828e-13
3.37179e-12
6.34947e-13
-1.33144e-11
1.4669e-12
7.53294e-12
-2.02952e-11
4.66549e-12
-4.46871e-12
-2.64736e-13
-4.33366e-12
-8.02739e-13
-4.11298e-12
-1.30477e-12
-3.81196e-12
-1.78085e-12
-3.44219e-12
-2.20821e-12
-3.00689e-12
-2.51387e-12
-2.53816e-12
-2.9548e-12
-2.00218e-12
-2.70055e-12
-1.5123e-12
-3.89686e-12
-8.64376e-13
-1.51106e-12
-4.3895e-13
-6.55761e-12
3.75929e-13
2.55691e-12
7.80732e-13
-1.37192e-11
2.05809e-12
6.25559e-12
-2.3733e-11
5.49586e-12
-4.74916e-12
-3.13695e-13
-4.60286e-12
-9.49034e-13
-4.36349e-12
-1.54414e-12
-4.03734e-12
-2.10699e-12
-3.63599e-12
-2.60956e-12
-3.16447e-12
-2.9854e-12
-2.65405e-12
-3.46522e-12
-2.07342e-12
-3.28117e-12
-1.53446e-12
-4.43582e-12
-8.35578e-13
-2.20995e-12
-3.72078e-13
-7.02111e-12
5.07229e-13
1.6776e-12
1.02368e-12
-1.42357e-11
2.74176e-12
4.53751e-12
-2.73967e-11
6.40548e-12
-4.99623e-12
-3.66378e-13
-4.83899e-12
-1.10627e-12
-4.58149e-12
-1.80164e-12
-4.23089e-12
-2.45759e-12
-3.79884e-12
-3.04161e-12
-3.29195e-12
-3.49229e-12
-2.74076e-12
-4.01641e-12
-2.11674e-12
-3.9052e-12
-1.5298e-12
-5.02276e-12
-7.8474e-13
-2.955e-12
-2.77542e-13
-7.52831e-12
6.81769e-13
7.18291e-13
1.3731e-12
-1.4927e-11
3.51977e-12
2.39084e-12
-3.12714e-11
7.39444e-12
-5.20691e-12
-4.22654e-13
-5.03905e-12
-1.27412e-12
-4.764e-12
-2.0767e-12
-4.38964e-12
-2.83194e-12
-3.9278e-12
-3.50345e-12
-3.38643e-12
-4.03366e-12
-2.79547e-12
-4.60736e-12
-2.12942e-12
-4.57124e-12
-1.49577e-12
-5.65641e-12
-7.06799e-13
-3.74398e-12
-1.45593e-13
-8.08951e-12
9.17938e-13
-3.4524e-13
1.83624e-12
-1.58453e-11
4.39307e-12
-1.65994e-13
-3.53407e-11
8.46243e-12
-5.37778e-12
-4.82392e-13
-5.19965e-12
-1.45225e-12
-4.90762e-12
-2.36872e-12
-4.51022e-12
-3.22934e-12
-4.01948e-12
-3.9942e-12
-3.44456e-12
-4.60857e-12
-2.81487e-12
-5.23705e-12
-2.10806e-12
-5.27806e-12
-1.42841e-12
-6.33606e-12
-5.94431e-13
-4.57796e-12
3.59462e-14
-8.71989e-12
1.23274e-12
-1.54204e-12
2.41834e-12
-1.70309e-11
5.3618e-12
-3.10945e-12
-3.95878e-11
9.60888e-12
-5.50503e-12
-5.45465e-13
-5.31696e-12
-1.64031e-12
-5.00854e-12
-2.67714e-12
-4.58881e-12
-3.64907e-12
-4.07004e-12
-4.51296e-12
-3.46246e-12
-5.21615e-12
-2.795e-12
-5.90451e-12
-2.04826e-12
-6.0248e-12
-1.32206e-12
-7.06225e-12
-4.38214e-13
-5.46181e-12
2.80703e-13
-9.43881e-12
1.64125e-12
-2.90259e-12
3.12274e-12
-1.85124e-11
6.42549e-12
-6.41221e-12
-4.39954e-11
1.08331e-11
-5.58441e-12
-6.11747e-13
-5.38674e-12
-1.83798e-12
-5.06247e-12
-3.0014e-12
-4.62109e-12
-4.09045e-12
-4.07511e-12
-5.05894e-12
-3.43565e-12
-5.85561e-12
-2.73109e-12
-6.60908e-12
-1.9445e-12
-6.81138e-12
-1.1694e-12
-7.83736e-12
-2.26997e-13
-6.40422e-12
6.02859e-13
-1.02687e-11
2.15625e-12
-4.45598e-12
3.95106e-12
-2.03072e-11
7.58323e-12
-1.00444e-11
-4.85465e-11
1.21343e-11
-5.61123e-12
-6.81123e-13
-5.40427e-12
-2.04494e-12
-5.06467e-12
-3.341e-12
-4.60226e-12
-4.55286e-12
-4.02975e-12
-5.63145e-12
-3.35896e-12
-6.52639e-12
-2.61751e-12
-7.35053e-12
-1.79005e-12
-7.63885e-12
-9.6152e-13
-8.66589e-12
5.15216e-14
-7.41726e-12
1.01626e-12
-1.12334e-11
2.7881e-12
-6.22782e-12
4.90348e-12
-2.24226e-11
8.83381e-12
-1.39747e-11
-5.32247e-11
1.35119e-11
-5.5803e-12
-7.53488e-13
-5.36434e-12
-2.26091e-12
-5.00986e-12
-3.69548e-12
-4.52693e-12
-5.03579e-12
-3.92838e-12
-6.22999e-12
-3.22649e-12
-7.22828e-12
-2.44768e-12
-8.12934e-12
-1.57695e-12
-8.50957e-12
-6.88192e-13
-9.55465e-12
4.10324e-13
-8.51578e-12
1.53387e-12
-1.2357e-11
3.54472e-12
-8.23867e-12
5.97899e-12
-2.48569e-11
1.01759e-11
-1.81716e-11
-5.8014e-11
1.49653e-11
-5.48598e-12
-8.28753e-13
-5.26125e-12
-2.48563e-12
-4.89225e-12
-4.06449e-12
-4.38916e-12
-5.53887e-12
-3.76481e-12
-6.85433e-12
-3.03156e-12
-7.96153e-12
-2.21406e-12
-8.94685e-12
-1.29615e-12
-9.42748e-12
-3.38211e-13
-1.05126e-11
8.62499e-13
-9.71649e-12
2.16726e-12
-1.36617e-11
4.43171e-12
-1.05031e-11
7.17574e-12
-2.76009e-11
1.16082e-11
-2.26041e-11
-6.28999e-11
1.64941e-11
-5.32212e-12
-9.06851e-13
-5.08881e-12
-2.71894e-12
-4.70551e-12
-4.44778e-12
-4.18243e-12
-6.06195e-12
-3.53216e-12
-7.5046e-12
-2.76672e-12
-8.72696e-12
-1.90821e-12
-9.80536e-12
-9.37647e-13
-1.0398e-11
1.00212e-13
-1.15504e-11
1.42066e-12
-1.10369e-11
2.92628e-12
-1.51673e-11
5.45258e-12
-1.30294e-11
8.49132e-12
-3.06396e-11
1.31297e-11
-2.72425e-11
-6.78684e-11
1.80983e-11
-5.08206e-12
-9.87741e-13
-4.84026e-12
-2.96074e-12
-4.44276e-12
-4.84528e-12
-3.8996e-12
-6.60511e-12
-3.22289e-12
-8.18131e-12
-2.42377e-12
-9.52608e-12
-1.52088e-12
-1.07082e-11
-4.90751e-13
-1.14282e-11
6.39152e-13
-1.26803e-11
2.09651e-12
-1.24943e-11
3.81893e-12
-1.68898e-11
6.6091e-12
-1.58196e-11
9.92309e-12
-3.39536e-11
1.47396e-11
-3.2059e-11
-7.29069e-11
1.97781e-11
-4.75866e-12
-1.07141e-12
-4.50838e-12
-3.21102e-12
-4.0966e-12
-5.25707e-12
-3.53298e-12
-7.16872e-12
-2.82885e-12
-8.88544e-12
-1.99383e-12
-1.03611e-11
-1.04216e-12
-1.16599e-11
5.5677e-14
-1.2526e-11
1.29028e-12
-1.3915e-11
2.9006e-12
-1.41046e-11
4.85137e-12
-1.88405e-11
7.90164e-12
-1.88699e-11
1.14684e-11
-3.75204e-11
1.64374e-11
-3.7028e-11
-7.80036e-11
2.1534e-11
-4.34428e-12
-1.15789e-12
-4.08542e-12
-3.46988e-12
-3.65906e-12
-5.68343e-12
-3.0743e-12
-7.75348e-12
-2.34126e-12
-9.61848e-12
-1.46742e-12
-1.12349e-11
-4.61645e-13
-1.26657e-11
7.12819e-13
-1.37005e-11
2.06488e-12
-1.5267e-11
3.84208e-12
-1.58818e-11
6.02805e-12
-2.10265e-11
9.32953e-12
-2.21713e-11
1.3125e-11
-4.13158e-11
1.82231e-11
-4.21261e-11
-8.31476e-11
2.3367e-11
-3.83078e-12
-1.24724e-12
-3.56312e-12
-3.73753e-12
-3.12169e-12
-6.12486e-12
-2.51476e-12
-8.36042e-12
-1.75085e-12
-1.03824e-11
-8.34588e-13
-1.21512e-11
2.31363e-13
-1.37316e-11
1.4919e-12
-1.4961e-11
2.9734e-12
-1.67485e-11
4.92863e-12
-1.78371e-11
7.35189e-12
-2.34498e-11
1.08915e-11
-2.5711e-11
1.48907e-11
-4.53151e-11
2.00972e-11
-4.73325e-11
-8.83285e-11
2.52781e-11
-3.20956e-12
-1.33956e-12
-2.93278e-12
-4.01432e-12
-2.47556e-12
-6.58207e-12
-1.8451e-12
-8.99088e-12
-1.04788e-12
-1.11796e-11
-8.50335e-14
-1.3114e-11
1.04767e-12
-1.48643e-11
2.40368e-12
-1.6317e-11
4.02532e-12
-1.83701e-11
6.16653e-12
-1.99783e-11
8.82463e-12
-2.61079e-11
1.2586e-11
-2.94724e-11
1.67645e-11
-4.94935e-11
2.20606e-11
-5.26286e-11
-9.35368e-11
2.72689e-11
-2.4716e-12
-1.43499e-12
-2.18522e-12
-4.3007e-12
-1.7113e-12
-7.05599e-12
-1.05563e-12
-9.64656e-12
-2.22261e-13
-1.2013e-11
7.9175e-13
-1.4128e-11
1.998e-12
-1.60706e-11
3.45841e-12
-1.77774e-11
5.22907e-12
-2.01408e-11
7.5607e-12
-2.23099e-11
1.04471e-11
-2.89943e-11
1.44115e-11
-3.34368e-11
1.87455e-11
-5.38274e-11
2.41147e-11
-5.79979e-11
-9.87628e-11
2.93408e-11
-1.60744e-12
-1.53372e-12
-1.3109e-12
-4.59724e-12
-8.19154e-13
-7.54773e-12
-1.36335e-13
-1.03294e-11
7.36343e-13
-1.28857e-11
1.80635e-12
-1.5198e-11
3.09285e-12
-1.73571e-11
4.66566e-12
-1.93502e-11
6.59199e-12
-2.20671e-11
9.11499e-12
-2.48329e-11
1.22195e-11
-3.20988e-11
1.63668e-11
-3.75841e-11
2.08337e-11
-5.82944e-11
2.62612e-11
-6.34255e-11
-1.03997e-10
3.14957e-11
-6.07261e-13
-1.63597e-12
-2.99877e-13
-4.90463e-12
2.10982e-13
-8.05859e-12
9.23099e-13
-1.10415e-11
1.83844e-12
-1.3801e-11
2.96931e-12
-1.63289e-11
4.34234e-12
-1.87301e-11
6.03427e-12
-2.10422e-11
8.12041e-12
-2.41533e-11
1.08323e-11
-2.75448e-11
1.41419e-11
-3.54084e-11
1.8451e-11
-4.18931e-11
2.30299e-11
-6.28733e-11
2.85023e-11
-6.88978e-11
-1.09231e-10
3.37356e-11
5.39109e-13
-1.74197e-12
8.5809e-13
-5.22361e-12
1.38947e-12
-8.58997e-12
2.13317e-12
-1.17852e-11
3.09458e-12
-1.47624e-11
4.29102e-12
-1.75254e-11
5.75614e-12
-2.01952e-11
7.5723e-12
-2.28583e-11
9.81976e-12
-2.64007e-11
1.27149e-11
-3.044e-11
1.62143e-11
-3.89078e-11
2.06641e-11
-4.63429e-11
2.53356e-11
-6.75448e-11
3.08401e-11
-7.44023e-11
-1.14453e-10
3.60624e-11
1.84212e-12
-1.85201e-12
2.17351e-12
-5.555e-12
2.7269e-12
-9.14336e-12
3.50451e-12
-1.25628e-11
4.51533e-12
-1.57732e-11
5.7816e-12
-1.87916e-11
7.3434e-12
-2.1757e-11
9.28706e-12
-2.4802e-11
1.16947e-11
-2.88084e-11
1.47647e-11
-3.351e-11
1.84368e-11
-4.25799e-11
2.30064e-11
-5.09126e-11
2.77525e-11
-7.22908e-11
3.32773e-11
-7.99272e-11
-1.19654e-10
3.84782e-11
3.31246e-12
-1.96635e-12
3.65711e-12
-5.89964e-12
4.234e-12
-9.72025e-12
5.0478e-12
-1.33766e-11
6.11111e-12
-1.68365e-11
7.45089e-12
-2.01314e-11
9.11274e-12
-2.34189e-11
1.11852e-11
-2.68745e-11
1.37493e-11
-3.13725e-11
1.69834e-11
-3.6744e-11
2.08099e-11
-4.64064e-11
2.54792e-11
-5.55818e-11
3.02831e-11
-7.70947e-11
3.58165e-11
-8.54606e-11
-1.24822e-10
4.09849e-11
4.96103e-12
-2.08527e-12
5.31975e-12
-6.25837e-12
5.9216e-12
-1.03221e-11
6.77369e-12
-1.42287e-11
7.89219e-12
-1.7955e-11
9.30838e-12
-2.15476e-11
1.10723e-11
-2.51828e-11
1.32728e-11
-2.9075e-11
1.59873e-11
-3.4087e-11
1.93726e-11
-4.01293e-11
2.33348e-11
-5.03686e-11
2.80842e-11
-6.03312e-11
3.29302e-11
-8.19407e-11
3.84602e-11
-9.09906e-11
-1.29947e-10
4.35844e-11
6.79883e-12
-2.20905e-12
7.17243e-12
-6.63196e-12
7.80055e-12
-1.09502e-11
8.69278e-12
-1.51209e-11
9.86863e-12
-1.91309e-11
1.13632e-11
-2.30421e-11
1.32296e-11
-2.70492e-11
1.55554e-11
-3.14009e-11
1.84121e-11
-3.69437e-11
2.19343e-11
-4.36515e-11
2.6013e-11
-5.44473e-11
3.08238e-11
-6.5142e-11
3.56968e-11
-8.68137e-11
4.12111e-11
-9.6505e-11
-1.35014e-10
4.62783e-11
8.83698e-12
-2.33793e-12
9.22614e-12
-7.02112e-12
9.88167e-12
-1.16057e-11
1.08155e-11
-1.60548e-11
1.20502e-11
-2.03656e-11
1.36239e-11
-2.46158e-11
1.55918e-11
-2.90171e-11
1.80383e-11
-3.38473e-11
2.1027e-11
-3.99324e-11
2.46705e-11
-4.7295e-11
2.88466e-11
-5.86234e-11
3.37008e-11
-6.99961e-11
3.8586e-11
-9.16989e-11
4.40717e-11
-1.01991e-10
-1.4001e-10
4.90684e-11
1.10866e-11
-2.47211e-12
1.14919e-11
-7.42641e-12
1.21757e-11
-1.22896e-11
1.31522e-11
-1.70312e-11
1.44465e-11
-2.16599e-11
1.60991e-11
-2.62684e-11
1.81658e-11
-3.10838e-11
2.07263e-11
-3.64079e-11
2.38353e-11
-4.30414e-11
2.75837e-11
-5.10434e-11
3.18381e-11
-6.28777e-11
3.67182e-11
-7.48762e-11
4.1601e-11
-9.65817e-11
4.70442e-11
-1.07434e-10
-1.44922e-10
5.19558e-11
1.35588e-11
-2.61175e-12
1.39806e-11
-7.84824e-12
1.46933e-11
-1.30022e-11
1.57128e-11
-1.80508e-11
1.70666e-11
-2.30137e-11
1.87965e-11
-2.79984e-11
2.09578e-11
-3.32451e-11
2.36243e-11
-3.90743e-11
2.68404e-11
-4.62576e-11
3.06767e-11
-5.48797e-11
3.49904e-11
-6.71914e-11
3.98794e-11
-7.97652e-11
4.47448e-11
-1.01447e-10
5.01306e-11
-1.1282e-10
-1.49733e-10
5.49418e-11
1.62645e-11
-2.75694e-12
1.67031e-11
-8.2868e-12
1.74447e-11
-1.37439e-11
1.85072e-11
-1.91132e-11
1.99195e-11
-2.4426e-11
2.17239e-11
-2.98029e-11
2.39741e-11
-3.54953e-11
2.67368e-11
-4.1837e-11
3.00459e-11
-4.95666e-11
3.39524e-11
-5.87863e-11
3.83068e-11
-7.15457e-11
4.31876e-11
-8.46461e-11
4.80202e-11
-1.0628e-10
5.33328e-11
-1.18132e-10
-1.54428e-10
5.80273e-11
1.92146e-11
-2.90769e-12
1.96699e-11
-8.74207e-12
2.04403e-11
-1.45143e-11
2.15449e-11
-2.02178e-11
2.30136e-11
-2.58947e-11
2.48886e-11
-3.16779e-11
2.72206e-11
-3.78273e-11
3.00683e-11
-4.46847e-11
3.34551e-11
-5.29534e-11
3.74142e-11
-6.27454e-11
4.17905e-11
-7.5922e-11
4.66463e-11
-8.95019e-11
5.14299e-11
-1.11063e-10
5.66523e-11
-1.23355e-10
-1.58988e-10
6.12129e-11
2.24198e-11
-3.06393e-12
2.28915e-11
-9.21373e-12
2.36899e-11
-1.53128e-11
2.4835e-11
-2.13629e-11
2.63572e-11
-2.74169e-11
2.82975e-11
-3.36182e-11
3.07028e-11
-4.02326e-11
3.36234e-11
-4.76054e-11
3.7072e-11
-5.6402e-11
4.10655e-11
-6.67388e-11
4.5445e-11
-8.03016e-11
5.02585e-11
-9.43153e-11
5.49761e-11
-1.15781e-10
6.00903e-11
-1.28469e-10
-1.63397e-10
6.44989e-11
2.58904e-11
-3.22549e-12
2.63779e-11
-9.7012e-12
2.72031e-11
-1.6138e-11
2.83864e-11
-2.25462e-11
2.99581e-11
-2.89885e-11
3.19573e-11
-3.56174e-11
3.44262e-11
-4.27015e-11
3.74064e-11
-5.05856e-11
4.09001e-11
-5.98957e-11
4.49096e-11
-7.07483e-11
4.92736e-11
-8.46656e-11
5.40269e-11
-9.90686e-11
5.86607e-11
-1.20415e-10
6.36474e-11
-1.33456e-10
-1.67635e-10
6.78855e-11
2.96365e-11
-3.3921e-12
3.01388e-11
-1.02036e-11
3.0989e-11
-1.69882e-11
3.22076e-11
-2.37647e-11
3.38238e-11
-3.06047e-11
3.58742e-11
-3.76678e-11
3.83959e-11
-4.52231e-11
4.14215e-11
-5.36112e-11
4.49431e-11
-6.34174e-11
4.89499e-11
-7.47551e-11
5.32793e-11
-8.8995e-11
5.79541e-11
-1.03743e-10
6.24851e-11
-1.24946e-10
6.73243e-11
-1.38295e-10
-1.71683e-10
7.13725e-11
3.36677e-11
-3.56339e-12
3.41837e-11
-1.07196e-11
3.50566e-11
-1.78611e-11
3.63064e-11
-2.50146e-11
3.79612e-11
-3.22595e-11
4.00543e-11
-3.97609e-11
4.26169e-11
-4.77858e-11
4.56727e-11
-5.6667e-11
4.92046e-11
-6.69493e-11
5.31896e-11
-7.87401e-11
5.74649e-11
-9.32703e-11
6.2042e-11
-1.08321e-10
6.64504e-11
-1.29354e-10
7.11211e-11
-1.42966e-10
-1.75522e-10
7.49595e-11
3.79933e-11
-3.73885e-12
3.85214e-11
-1.12477e-11
3.94141e-11
-1.87537e-11
4.06906e-11
-2.62911e-11
4.23771e-11
-3.3946e-11
4.45031e-11
-4.18869e-11
4.70938e-11
-5.03765e-11
5.0164e-11
-5.97372e-11
5.36877e-11
-7.0473e-11
5.76316e-11
-8.2684e-11
6.18327e-11
-9.74713e-11
6.62923e-11
-1.1278e-10
7.05571e-11
-1.33619e-10
7.50375e-11
-1.47446e-10
-1.7913e-10
7.86458e-11
4.2622e-11
-3.91788e-12
4.31603e-11
-1.17861e-11
4.40693e-11
-1.96627e-11
4.53671e-11
-2.75889e-11
4.70775e-11
-3.56564e-11
4.92258e-11
-4.40351e-11
5.18309e-11
-5.29815e-11
5.48988e-11
-6.28051e-11
5.83956e-11
-7.39698e-11
6.22783e-11
-8.65667e-11
6.63845e-11
-1.01578e-10
7.07059e-11
-1.17101e-10
7.48053e-11
-1.37718e-10
7.9073e-11
-1.51714e-10
-1.82488e-10
8.24306e-11
4.75621e-11
-4.09974e-12
4.81083e-11
-1.23323e-11
4.90296e-11
-2.0584e-11
5.03425e-11
-2.89019e-11
5.20681e-11
-3.7382e-11
5.42271e-11
-4.61941e-11
5.68319e-11
-5.55863e-11
5.98803e-11
-6.58535e-11
6.33307e-11
-7.74202e-11
6.71318e-11
-9.03678e-11
7.11218e-11
-1.05568e-10
7.52833e-11
-1.21263e-10
7.91947e-11
-1.4163e-10
8.32267e-11
-1.55746e-10
-1.85574e-10
8.63126e-11
5.28211e-11
-4.28357e-12
5.33726e-11
-1.28838e-11
5.43016e-11
-2.15129e-11
5.56228e-11
-3.02231e-11
5.7354e-11
-3.91133e-11
5.95112e-11
-4.83513e-11
6.21003e-11
-5.81755e-11
6.51112e-11
-6.88644e-11
6.84952e-11
-8.08042e-11
7.21935e-11
-9.40661e-11
7.60453e-11
-1.09419e-10
8.00245e-11
-1.25242e-10
8.37247e-11
-1.4533e-10
8.74975e-11
-1.59519e-10
-1.88367e-10
9.02906e-11
5.84061e-11
-4.4684e-12
5.89599e-11
-1.34376e-11
5.98913e-11
-2.24443e-11
6.12131e-11
-3.15449e-11
6.29396e-11
-4.08398e-11
6.50817e-11
-5.04934e-11
6.7639e-11
-6.07327e-11
7.05935e-11
-7.18189e-11
7.38905e-11
-8.41012e-11
7.74643e-11
-9.76399e-11
8.11551e-11
-1.1311e-10
8.4929e-11
-1.29016e-10
8.83939e-11
-1.48795e-10
9.18838e-11
-1.63009e-10
-1.90846e-10
9.4363e-11
6.43231e-11
-4.65313e-12
6.48759e-11
-1.39905e-11
6.58042e-11
-2.33725e-11
6.71182e-11
-3.28589e-11
6.88288e-11
-4.25504e-11
7.09417e-11
-5.26063e-11
7.34501e-11
-6.32411e-11
7.6329e-11
-7.46979e-11
7.95177e-11
-8.72899e-11
8.29446e-11
-1.01067e-10
8.64509e-11
-1.16617e-10
8.99956e-11
-1.32561e-10
9.32008e-11
-1.52e-10
9.63839e-11
-1.66192e-10
-1.9299e-10
9.85279e-11
7.05778e-11
-4.83654e-12
7.11259e-11
-1.45386e-11
7.20447e-11
-2.42913e-11
7.3342e-11
-3.41562e-11
7.50247e-11
-4.42331e-11
7.70935e-11
-5.4675e-11
7.95353e-11
-6.56829e-11
8.23184e-11
-7.7481e-11
8.5377e-11
-9.03484e-11
8.86338e-11
-1.04324e-10
9.19316e-11
-1.19914e-10
9.52227e-11
-1.35852e-10
9.81434e-11
-1.54921e-10
1.00996e-10
-1.69044e-10
-1.94777e-10
1.02784e-10
7.71748e-11
-5.01729e-12
7.77142e-11
-1.50781e-11
7.86168e-11
-2.51939e-11
7.98876e-11
-3.54271e-11
8.15298e-11
-4.58753e-11
8.35387e-11
-5.66839e-11
8.58954e-11
-6.80397e-11
8.85621e-11
-8.01477e-11
9.14679e-11
-9.32542e-11
9.45311e-11
-1.07387e-10
9.75957e-11
-1.22979e-10
1.00608e-10
-1.38865e-10
1.0322e-10
-1.57532e-10
1.05717e-10
-1.71542e-10
-1.96188e-10
1.07128e-10
8.41179e-11
-5.19394e-12
8.46443e-11
-1.56046e-11
8.55234e-11
-2.60729e-11
8.67574e-11
-3.66612e-11
8.83455e-11
-4.74634e-11
9.02782e-11
-5.86165e-11
9.25307e-11
-7.02922e-11
9.50596e-11
-8.26766e-11
9.77895e-11
-9.59841e-11
1.00635e-10
-1.10232e-10
1.03441e-10
-1.25785e-10
1.0615e-10
-1.41574e-10
1.08426e-10
-1.59808e-10
1.10546e-10
-1.73661e-10
-1.97201e-10
1.11558e-10
9.14101e-11
-5.36491e-12
9.19189e-11
-1.61134e-11
9.27666e-11
-2.69206e-11
9.39529e-11
-3.78475e-11
9.54729e-11
-4.89833e-11
9.7312e-11
-6.04557e-11
9.94406e-11
-7.24208e-11
1.0181e-10
-8.50454e-11
1.0434e-10
-9.85144e-11
1.06942e-10
-1.12834e-10
1.09464e-10
-1.28308e-10
1.11845e-10
-1.43954e-10
1.13761e-10
-1.61725e-10
1.15478e-10
-1.75378e-10
-1.97795e-10
1.16073e-10
9.90534e-11
-5.52853e-12
9.95396e-11
-1.65996e-11
1.00348e-10
-2.77287e-11
1.01475e-10
-3.89744e-11
1.02912e-10
-5.04203e-11
1.0464e-10
-6.21837e-11
1.06624e-10
-7.44049e-11
1.0881e-10
-8.72317e-11
1.11116e-10
-1.00821e-10
1.13451e-10
-1.15169e-10
1.15663e-10
-1.3052e-10
1.17689e-10
-1.45979e-10
1.19221e-10
-1.63257e-10
1.20513e-10
-1.7667e-10
-1.97951e-10
1.20669e-10
1.07049e-10
-5.68303e-12
1.07507e-10
-1.70579e-11
1.08267e-10
-2.84885e-11
1.09323e-10
-4.00298e-11
1.10661e-10
-5.17589e-11
1.12259e-10
-6.37819e-11
1.14078e-10
-7.62234e-11
1.16058e-10
-8.92123e-11
1.18116e-10
-1.02879e-10
1.20157e-10
-1.17209e-10
1.22034e-10
-1.32397e-10
1.23679e-10
-1.47625e-10
1.24801e-10
-1.64379e-10
1.25645e-10
-1.77514e-10
-1.9765e-10
1.25344e-10
1.15397e-10
-5.82651e-12
1.15822e-10
-1.74827e-11
1.16524e-10
-2.91908e-11
1.17495e-10
-4.1001e-11
1.18719e-10
-5.29829e-11
1.20169e-10
-6.52313e-11
1.218e-10
-7.78545e-11
1.23551e-10
-9.09634e-11
1.25335e-10
-1.04663e-10
1.27056e-10
-1.18931e-10
1.28571e-10
-1.33911e-10
1.29811e-10
-1.48865e-10
1.305e-10
-1.65068e-10
1.30873e-10
-1.77887e-10
-1.96871e-10
1.30094e-10
1.24096e-10
-5.95701e-12
1.24482e-10
-1.78683e-11
1.25117e-10
-2.9826e-11
1.25991e-10
-4.18747e-11
1.27084e-10
-5.40759e-11
1.28365e-10
-6.65121e-11
1.29786e-10
-7.92762e-11
1.31284e-10
-9.24608e-11
1.32769e-10
-1.06147e-10
1.34144e-10
-1.20306e-10
1.35271e-10
-1.35038e-10
1.36081e-10
-1.49675e-10
1.36311e-10
-1.65298e-10
1.36192e-10
-1.77768e-10
-1.95597e-10
1.34918e-10
1.33145e-10
-6.07246e-12
1.33486e-10
-1.82086e-11
1.34044e-10
-3.0384e-11
1.34806e-10
-4.26372e-11
1.35751e-10
-5.50205e-11
1.36843e-10
-6.76043e-11
1.38032e-10
-8.04657e-11
1.39252e-10
-9.36802e-11
1.40412e-10
-1.07307e-10
1.41416e-10
-1.2131e-10
1.42129e-10
-1.35751e-10
1.42483e-10
-1.50029e-10
1.42232e-10
-1.65047e-10
1.41599e-10
-1.77135e-10
-1.9381e-10
1.39812e-10
1.42541e-10
-6.17072e-12
1.4283e-10
-1.84972e-11
1.433e-10
-3.08546e-11
1.43937e-10
-4.32742e-11
1.44716e-10
-5.57991e-11
1.45599e-10
-6.84871e-11
1.46533e-10
-8.13999e-11
1.4745e-10
-9.45966e-11
1.48259e-10
-1.08117e-10
1.48865e-10
-1.21917e-10
1.49138e-10
-1.36024e-10
1.49013e-10
-1.49903e-10
1.48258e-10
-1.64292e-10
1.47091e-10
-1.75968e-10
-1.91493e-10
1.44773e-10
1.5228e-10
-6.24955e-12
1.5251e-10
-1.87275e-11
1.52883e-10
-3.12269e-11
1.5338e-10
-4.37712e-11
1.53974e-10
-5.63936e-11
1.54627e-10
-6.91394e-11
1.55282e-10
-8.20555e-11
1.55871e-10
-9.51851e-11
1.56303e-10
-1.0855e-10
1.56486e-10
-1.221e-10
1.56294e-10
-1.35832e-10
1.55665e-10
-1.49274e-10
1.54384e-10
-1.63011e-10
1.52663e-10
-1.74247e-10
-1.88628e-10
1.49799e-10
1.62357e-10
-6.30666e-12
1.62523e-10
-1.88929e-11
1.62786e-10
-3.149e-11
1.63128e-10
-4.41132e-11
1.63519e-10
-5.67855e-11
1.6392e-10
-6.95398e-11
1.64273e-10
-8.24086e-11
1.64508e-10
-9.54205e-11
1.64539e-10
-1.0858e-10
1.64272e-10
-1.21833e-10
1.63591e-10
-1.35151e-10
1.62434e-10
-1.48118e-10
1.60605e-10
-1.61182e-10
1.58311e-10
-1.71953e-10
-1.85201e-10
1.54884e-10
1.72767e-10
-6.33968e-12
1.7286e-10
-1.89863e-11
1.73003e-10
-3.16325e-11
1.73174e-10
-4.42847e-11
1.73345e-10
-5.69558e-11
1.73471e-10
-6.96665e-11
1.73498e-10
-8.24354e-11
1.73355e-10
-9.52774e-11
1.72957e-10
-1.08182e-10
1.72216e-10
-1.21092e-10
1.7102e-10
-1.33955e-10
1.69315e-10
-1.46413e-10
1.66917e-10
-1.58785e-10
1.64032e-10
-1.69067e-10
-1.81196e-10
1.60027e-10
1.83502e-10
-6.34623e-12
1.83517e-10
-1.90007e-11
1.83527e-10
-3.16428e-11
1.83512e-10
-4.42702e-11
1.83442e-10
-5.68855e-11
1.83273e-10
-6.94975e-11
1.8295e-10
-8.21118e-11
1.82403e-10
-9.47308e-11
1.81551e-10
-1.0733e-10
1.8031e-10
-1.19851e-10
1.78577e-10
-1.32221e-10
1.763e-10
-1.44136e-10
1.73314e-10
-1.558e-10
1.6982e-10
-1.65573e-10
-1.766e-10
1.65223e-10
1.94556e-10
-6.32382e-12
1.94484e-10
-1.89288e-11
1.94351e-10
-3.15092e-11
1.94134e-10
-4.40538e-11
1.93804e-10
-5.65551e-11
1.93317e-10
-6.90106e-11
1.92619e-10
-8.14137e-11
1.91643e-10
-9.37553e-11
1.90313e-10
-1.06e-10
1.88548e-10
-1.18086e-10
1.86252e-10
-1.29926e-10
1.83383e-10
-1.41266e-10
1.79791e-10
-1.52208e-10
1.7567e-10
-1.61452e-10
-1.71398e-10
1.70469e-10
2.05921e-10
-6.26999e-12
2.05755e-10
-1.87633e-11
2.05466e-10
-3.12197e-11
2.05031e-10
-4.36194e-11
2.04421e-10
-5.5945e-11
2.03594e-10
-6.81835e-11
2.02497e-10
-8.03169e-11
2.01068e-10
-9.2326e-11
1.99233e-10
-1.04165e-10
1.96919e-10
-1.15772e-10
1.9404e-10
-1.27047e-10
1.90558e-10
-1.37784e-10
1.86341e-10
-1.47991e-10
1.81579e-10
-1.5669e-10
-1.6558e-10
1.75761e-10
2.17586e-10
-6.18219e-12
2.1732e-10
-1.84966e-11
2.16862e-10
-3.07622e-11
2.16194e-10
-4.29507e-11
2.15284e-10
-5.50356e-11
2.14094e-10
-6.69937e-11
2.12575e-10
-7.87973e-11
2.10667e-10
-9.04178e-11
2.08303e-10
-1.01801e-10
2.05417e-10
-1.12887e-10
2.01932e-10
-1.23562e-10
1.97818e-10
-1.33669e-10
1.92959e-10
-1.43132e-10
1.87541e-10
-1.51272e-10
-1.59134e-10
1.81095e-10
2.29544e-10
-6.05792e-12
2.29169e-10
-1.81213e-11
2.28531e-10
-3.01245e-11
2.27612e-10
-4.20314e-11
2.26383e-10
-5.38069e-11
2.24808e-10
-6.5419e-11
2.22842e-10
-7.68309e-11
2.2043e-10
-8.80062e-11
2.17513e-10
-9.88839e-11
2.14032e-10
-1.09405e-10
2.0992e-10
-1.1945e-10
2.05154e-10
-1.28903e-10
1.99638e-10
-1.37616e-10
1.9355e-10
-1.45184e-10
-1.5205e-10
1.86466e-10
2.41783e-10
-5.89461e-12
2.41292e-10
-1.76298e-11
2.40462e-10
-2.92944e-11
2.39276e-10
-4.08451e-11
2.37708e-10
-5.22394e-11
2.35726e-10
-6.3437e-11
2.33289e-10
-7.43936e-11
2.30349e-10
-8.50665e-11
2.26855e-10
-9.53895e-11
2.22755e-10
-1.05306e-10
2.17996e-10
-1.14691e-10
2.12561e-10
-1.23468e-10
2.06372e-10
-1.31427e-10
1.996e-10
-1.38412e-10
-1.4432e-10
1.9187e-10
2.54294e-10
-5.68973e-12
2.53679e-10
-1.70145e-11
2.52644e-10
-2.82597e-11
2.51174e-10
-3.93756e-11
2.49248e-10
-5.0313e-11
2.46836e-10
-6.10254e-11
2.43905e-10
-7.14618e-11
2.40413e-10
-8.15746e-11
2.36317e-10
-9.12939e-11
2.31578e-10
-1.00566e-10
2.2615e-10
-1.09264e-10
2.20029e-10
-1.17347e-10
2.13153e-10
-1.24551e-10
2.05686e-10
-1.30945e-10
-1.35937e-10
1.97303e-10
2.67065e-10
-5.44077e-12
2.66318e-10
-1.6268e-11
2.65067e-10
-2.7008e-11
2.63298e-10
-3.76063e-11
2.60993e-10
-4.80083e-11
2.58129e-10
-5.8162e-11
2.54679e-10
-6.80118e-11
2.50611e-10
-7.75064e-11
2.45891e-10
-8.65738e-11
2.40489e-10
-9.51647e-11
2.34375e-10
-1.03149e-10
2.2755e-10
-1.10522e-10
2.19973e-10
-1.16974e-10
2.118e-10
-1.22772e-10
-1.26895e-10
2.02758e-10
2.80085e-10
-5.1452e-12
2.792e-10
-1.53826e-11
2.77719e-10
-2.55274e-11
2.75634e-10
-3.55212e-11
2.72931e-10
-4.53056e-11
2.69594e-10
-5.48249e-11
2.65603e-10
-6.40203e-11
2.60934e-10
-7.28382e-11
2.55567e-10
-8.12061e-11
2.49481e-10
-8.90792e-11
2.4266e-10
-9.63284e-11
2.35116e-10
-1.02978e-10
2.26826e-10
-1.08683e-10
2.17936e-10
-1.13882e-10
-1.17191e-10
2.08232e-10
2.93343e-10
-4.80056e-12
2.92312e-10
-1.4351e-11
2.9059e-10
-2.38057e-11
2.88173e-10
-3.31041e-11
2.85053e-10
-4.21857e-11
2.8122e-10
-5.09924e-11
2.76664e-10
-5.9464e-11
2.71372e-10
-6.75464e-11
2.65334e-10
-7.51677e-11
2.58543e-10
-8.22886e-11
2.50997e-10
-8.87819e-11
2.42717e-10
-9.46983e-11
2.33701e-10
-9.96672e-11
2.24085e-10
-1.04266e-10
-1.06822e-10
2.13716e-10
3.06828e-10
-4.40443e-12
3.05643e-10
-1.31659e-11
3.03668e-10
-2.18312e-11
3.00904e-10
-3.03393e-11
2.97347e-10
-3.86293e-11
2.92998e-10
-4.6643e-11
2.87854e-10
-5.432e-11
2.81915e-10
-6.16076e-11
2.75183e-10
-6.84359e-11
2.67666e-10
-7.47718e-11
2.59376e-10
-8.04912e-11
2.50345e-10
-8.56679e-11
2.40592e-10
-8.99135e-11
2.3024e-10
-9.39143e-11
-9.57881e-11
2.19206e-10
3.20528e-10
-3.95443e-12
3.19182e-10
-1.18202e-11
3.16943e-10
-1.95923e-11
3.13815e-10
-2.72113e-11
3.09804e-10
-3.46179e-11
3.04916e-10
-4.17554e-11
2.99162e-10
-4.85657e-11
2.92553e-10
-5.49987e-11
2.85105e-10
-6.09882e-11
2.76841e-10
-6.65076e-11
2.67787e-10
-7.14374e-11
2.5799e-10
-7.58709e-11
2.47487e-10
-7.94104e-11
2.36391e-10
-8.28183e-11
-8.40906e-11
2.24694e-10
3.34433e-10
-3.44825e-12
3.3292e-10
-1.03068e-11
3.30405e-10
-1.70775e-11
3.26898e-10
-2.37048e-11
3.22413e-10
-3.01329e-11
3.16967e-10
-3.6309e-11
3.1058e-10
-4.21788e-11
3.03278e-10
-4.76967e-11
2.95092e-10
-5.28017e-11
2.86059e-10
-5.74745e-11
2.76223e-10
-6.16014e-11
2.65643e-10
-6.52912e-11
2.54379e-10
-6.81462e-11
2.42529e-10
-7.09685e-11
-7.17322e-11
2.3017e-10
3.48532e-10
-2.88365e-12
3.46844e-10
-8.619e-12
3.44043e-10
-1.42761e-11
3.40143e-10
-1.98051e-11
3.35167e-10
-2.51566e-11
3.29141e-10
-3.02833e-11
3.22099e-10
-3.51372e-11
3.14081e-10
-3.96789e-11
3.05134e-10
-4.38541e-11
2.9531e-10
-4.7651e-11
2.84673e-10
-5.09639e-11
2.73294e-10
-5.39119e-11
2.61257e-10
-5.61092e-11
2.48642e-10
-5.83542e-11
-5.87165e-11
2.35627e-10
3.62814e-10
-2.2585e-12
3.60946e-10
-6.75039e-12
3.57847e-10
-1.11774e-11
3.5354e-10
-1.54981e-11
3.48055e-10
-1.96714e-11
3.4143e-10
-2.36585e-11
3.33712e-10
-2.74193e-11
3.24956e-10
-3.09226e-11
3.15224e-10
-3.41225e-11
3.04589e-10
-3.70151e-11
2.9313e-10
-3.95052e-11
2.80933e-10
-4.17149e-11
2.68111e-10
-4.32878e-11
2.5472e-10
-4.49631e-11
-4.50467e-11
2.41051e-10
3.77271e-10
-1.57075e-12
3.75216e-10
-4.69478e-12
3.7181e-10
-7.77132e-12
3.67082e-10
-1.07701e-11
3.61071e-10
-1.36608e-11
3.53828e-10
-1.64153e-11
3.45413e-10
-1.90041e-11
3.35895e-10
-2.14055e-11
3.25357e-10
-2.35846e-11
3.13886e-10
-2.55438e-11
3.01586e-10
-2.72054e-11
2.88551e-10
-2.86796e-11