/*--------------------------------*- C++ -*----------------------------------*\
| =========                 |                                                 |
| \\      /  F ield         | OpenFOAM: The Open Source CFD Toolbox           |
|  \\    /   O peration     | Version:  5.x                                   |
|   \\  /    A nd           | Web:      www.OpenFOAM.org                      |
|    \\/     M anipulation  |                                                 |
\*---------------------------------------------------------------------------*/
FoamFile
{
    version     2.0;
    format      ascii;
    class       volVectorField;
    location    "0.005";
    object      U;
}
// * * * * * * * * * * * * * * * * * * * * * * * * * * * * * * * * * * * * * //

dimensions      [0 1 -1 0 0 0 0];

internalField   nonuniform List<vector> 
7200
(
(-0.000528649 -2.77139e-05 0)
(-0.000529179 -8.11087e-05 2.62164e-23)
(-0.000489143 -0.000131055 -1.63736e-22)
(-0.000517277 -0.000188019 0)
(-0.000376164 -0.000203251 -3.96388e-22)
(-0.00055714 -0.000315786 5.77827e-23)
(-9.48485e-05 -0.000163024 -1.81369e-21)
(-0.000807205 -0.000583955 1.75589e-23)
(0.000553064 0.00021599 -4.61037e-21)
(-0.00150369 -0.00127677 0)
(0.00166965 0.00120403 -5.97049e-23)
(-0.00229789 -0.00217258 8.79024e-21)
(0.00187154 0.00130983 0)
(-0.00108451 -0.000467175 -5.13705e-21)
(0.000330821 -0.000206485 -8.29607e-22)
(-0.00156892 -8.48344e-05 -1.76306e-25)
(-0.00155943 -0.000251974 1.7437e-25)
(-0.00146518 -0.000405859 0)
(-0.00148212 -0.00057624 -6.68047e-24)
(-0.00119548 -0.000646515 5.82797e-22)
(-0.00144548 -0.000916876 -2.14497e-22)
(-0.000620734 -0.000640542 1.12233e-23)
(-0.00170507 -0.00148136 -1.13065e-21)
(0.000545455 4.97648e-05 6.8151e-21)
(-0.0026345 -0.00281405 1.16275e-23)
(0.00247434 0.00207468 7.703e-21)
(-0.00390049 -0.00487207 -1.31703e-20)
(0.00322155 0.00311503 1.55093e-20)
(-0.00189949 -0.0014743 8.023e-21)
(0.000952582 -0.000485696 -5.9283e-22)
(-0.00257159 -0.000141562 -7.69478e-25)
(-0.00254792 -0.000421327 1.92489e-25)
(-0.00241168 -0.000681262 -4.19044e-24)
(-0.00239327 -0.000954329 4.05228e-24)
(-0.00201206 -0.00110767 0)
(-0.0022391 -0.00146249 4.45063e-22)
(-0.00121624 -0.00123005 6.63417e-24)
(-0.00241366 -0.00212927 1.12411e-21)
(0.000353145 -0.00058213 2.03629e-23)
(-0.00350154 -0.00350158 -2.83658e-21)
(0.00313798 0.00162267 -9.98234e-22)
(-0.00559306 -0.00586485 7.07988e-23)
(0.00519025 0.00372124 -1.61556e-20)
(-0.00325458 -0.00225704 0)
(0.00179988 -0.00067368 2.75383e-21)
(-0.00353524 -0.000198015 1.18663e-24)
(-0.00349515 -0.000591217 5.31005e-23)
(-0.00332327 -0.00095699 0)
(-0.00325664 -0.0013321 -3.04009e-22)
(-0.00280839 -0.00157204 -5.44291e-26)
(-0.00295945 -0.00199969 -5.51852e-22)
(-0.00184244 -0.00183968 0)
(-0.00296195 -0.00272821 0)
(-2.24487e-05 -0.00131146 0)
(-0.00397267 -0.00397974 2.93347e-21)
(0.00326984 0.000786947 -7.09004e-21)
(-0.0065241 -0.00615223 3.62891e-23)
(0.00670493 0.00368211 5.08578e-23)
(-0.00449771 -0.00289693 -1.12312e-23)
(0.00281803 -0.000791931 -1.48728e-21)
(-0.00445843 -0.000254509 -1.05883e-24)
(-0.00440086 -0.000761416 -5.28709e-23)
(-0.00419639 -0.00123347 -1.45579e-22)
(-0.00407603 -0.00170967 6.25659e-22)
(-0.00357251 -0.00203864 -6.31016e-22)
(-0.00362652 -0.00253325 2.92596e-22)
(-0.00245708 -0.002456 1.18326e-23)
(-0.0034221 -0.00331139 0)
(-0.00045517 -0.00206428 -3.13554e-24)
(-0.0042408 -0.00439602 2.73109e-24)
(0.00313984 -0.00015333 3.78124e-23)
(-0.00690509 -0.00611382 -3.0231e-23)
(0.00777792 0.00322076 1.14544e-20)
(-0.00555617 -0.00340153 0)
(0.00403289 -0.000858425 1.46312e-21)
(-0.00533946 -0.000311101 -2.54136e-25)
(-0.00526397 -0.000931638 1.91122e-24)
(-0.00502842 -0.00151049 -7.3902e-24)
(-0.00485236 -0.00208675 -3.29303e-22)
(-0.00429811 -0.00250626 1.27679e-21)
(-0.00424857 -0.00306473 1.30594e-23)
(-0.00304039 -0.0030726 -1.21645e-23)
(-0.00382687 -0.00389101 0)
(-0.000883068 -0.00281051 0)
(-0.00440617 -0.00480693 0)
(0.00292706 -0.00107541 0)
(-0.00694844 -0.0059668 6.34e-21)
(0.00850997 0.00249218 -1.19271e-20)
(-0.0064061 -0.00377382 2.71238e-23)
(0.00546084 -0.000886681 -3.12384e-21)
(-0.00617628 -0.000367754 0)
(-0.00608277 -0.00110167 -1.74786e-24)
(-0.00581689 -0.00178765 1.54387e-22)
(-0.0055848 -0.00246311 -3.69002e-22)
(-0.00498127 -0.00297372 1.58802e-23)
(-0.00482765 -0.00359472 0)
(-0.00358329 -0.00368576 0)
(-0.00418776 -0.00447172 0)
(-0.00127959 -0.0035369 2.32858e-21)
(-0.00450626 -0.00523414 1.55893e-21)
(0.00271573 -0.00192857 -2.60877e-23)
(-0.00678706 -0.00584222 -6.30503e-21)
(0.0089764 0.00162411 9.82991e-21)
(-0.00701105 -0.0040228 2.09602e-23)
(0.00711373 -0.000887128 6.65582e-23)
(-0.00696644 -0.000424389 -1.87978e-24)
(-0.00685498 -0.00127128 -1.84107e-24)
(-0.00655917 -0.0020645 -1.64111e-22)
(-0.00627147 -0.00283833 7.66009e-22)
(-0.00561887 -0.00343995 -1.35794e-21)
(-0.00536298 -0.00412292 -5.20612e-24)
(-0.00408083 -0.00429339 -1.18033e-21)
(-0.00450734 -0.0050537 -1.97565e-22)
(-0.00163205 -0.0042395 -5.02198e-23)
(-0.00455346 -0.00568147 -1.58644e-21)
(0.00254243 -0.00270413 0)
(-0.0065086 -0.00580413 0)
(0.00924967 0.000715607 -1.96117e-20)
(-0.00733367 -0.00416096 2.27423e-23)
(0.00900108 -0.000867954 7.5762e-23)
(-0.00770703 -0.000480895 1.88696e-24)
(-0.00757778 -0.00144018 -1.93955e-24)
(-0.00725229 -0.00234045 3.42058e-22)
(-0.00690976 -0.0032118 2.50942e-23)
(-0.00620784 -0.00390386 6.77643e-22)
(-0.00585229 -0.00464838 -5.30619e-22)
(-0.00452937 -0.00489405 2.4021e-21)
(-0.00478426 -0.00563503 1.77398e-22)
(-0.00193322 -0.00491841 -2.30978e-21)
(-0.00455134 -0.00614549 1.13254e-21)
(0.00241992 -0.00341229 -1.78077e-23)
(-0.0061694 -0.00586976 -5.79732e-23)
(0.00940703 -0.000161233 9.72526e-21)
(-0.00734278 -0.0042021 0)
(0.0111303 -0.000835649 7.48292e-23)
(-0.00839459 -0.000537134 -2.48263e-24)
(-0.00824777 -0.00160801 -8.00281e-23)
(-0.0078928 -0.00261482 -1.76279e-22)
(-0.00749638 -0.00358267 -4.24423e-22)
(-0.00674478 -0.0043642 -1.04057e-23)
(-0.00629238 -0.00516973 5.68247e-22)
(-0.00492548 -0.00548633 1.26659e-23)
(-0.00501527 -0.00621303 -3.91894e-22)
(-0.00217848 -0.00557479 2.07102e-23)
(-0.00450046 -0.00662079 -1.15498e-21)
(0.00234926 -0.00406687 0)
(-0.00579795 -0.00602799 0)
(0.00952626 -0.000956429 -2.77466e-23)
(-0.00701356 -0.00416073 4.03526e-23)
(0.0135065 -0.000795395 1.82851e-21)
(-0.0090251 -0.000592938 2.49216e-24)
(-0.00886097 -0.00177432 1.681e-22)
(-0.00847672 -0.00288681 -4.55038e-24)
(-0.00802741 -0.00394995 6.47993e-24)
(-0.00722582 -0.00481956 7.72112e-22)
(-0.00667927 -0.00568527 5.06384e-24)
(-0.00526546 -0.00606862 -1.26056e-21)
(-0.00519615 -0.00678474 8.60403e-22)
(-0.00236437 -0.00620944 -2.12926e-23)
(-0.00440042 -0.00710127 -3.8736e-23)
(0.00232854 -0.00467802 3.32724e-23)
(-0.00539944 -0.00625238 -4.07506e-21)
(0.00968217 -0.00163798 8.55666e-21)
(-0.00632723 -0.00405165 2.16156e-23)
(0.016133 -0.000751342 -1.84111e-21)
(-0.00959392 -0.000648117 0)
(-0.00941276 -0.0019386 -8.82062e-23)
(-0.00899945 -0.00315552 7.04048e-24)
(-0.00849827 -0.0043124 -6.85022e-24)
(-0.00764649 -0.00526831 -1.56865e-21)
(-0.00700831 -0.00619301 -5.06448e-24)
(-0.00554505 -0.00663896 1.52484e-23)
(-0.00532208 -0.00734692 -4.44754e-22)
(-0.00248772 -0.0068221 -2.19684e-23)
(-0.0042498 -0.00757999 0)
(0.00235867 -0.00524973 0)
(-0.00496085 -0.00651025 4.17407e-21)
(0.00994438 -0.00218844 -8.84848e-21)
(-0.00527095 -0.0038895 -3.79056e-21)
(0.019011 -0.000706787 1.96547e-21)
(-0.0100957 -0.000702454 0)
(-0.00989783 -0.00210024 0)
(-0.00945568 -0.00341988 7.43319e-24)
(-0.00890367 -0.00466861 3.48888e-24)
(-0.00800158 -0.0057086 -5.02307e-23)
(-0.00727412 -0.00669062 1.1839e-23)
(-0.00575928 -0.00719495 -1.33234e-21)
(-0.00538766 -0.00789591 0)
(-0.00254483 -0.00741098 -1.19404e-23)
(-0.00404517 -0.00804877 4.41578e-22)
(0.00244651 -0.00577989 0)
(-0.00445579 -0.00676879 0)
(0.0103757 -0.002602 0)
(-0.00383753 -0.00368839 7.67649e-21)
(0.0221407 -0.000664289 0)
(-0.0105245 -0.000755711 0)
(-0.0103101 -0.00225857 1.06713e-22)
(-0.00983941 -0.00367873 2.18416e-22)
(-0.00923756 -0.00501697 0)
(-0.00828512 -0.0061383 8.15401e-22)
(-0.00747054 -0.00717545 3.022e-23)
(-0.00590234 -0.00773368 2.68443e-21)
(-0.00538671 -0.00842749 7.68175e-22)
(-0.0025307 -0.00797266 0)
(-0.00377983 -0.00849809 -4.78487e-22)
(0.00260615 -0.00626178 3.53925e-23)
(-0.00384895 -0.00699894 0)
(0.0110306 -0.0028818 1.8393e-23)
(-0.00202487 -0.00346158 -3.87748e-21)
(0.0255206 -0.000625749 4.06268e-21)
(-0.0108734 -0.000807621 3.8046e-24)
(-0.0106429 -0.00241283 -4.72518e-23)
(-0.0101438 -0.00393077 -1.40278e-24)
(-0.00949307 -0.00535566 8.06196e-24)
(-0.00849029 -0.00655506 1.39033e-23)
(-0.00759051 -0.00764449 -3.17544e-23)
(-0.00596743 -0.0082517 3.31404e-23)
(-0.00531191 -0.00893675 -7.44592e-22)
(-0.00243823 -0.0085021 0)
(-0.00344296 -0.00891735 0)
(0.00285873 -0.0066861 0)
(-0.00310001 -0.00717767 0)
(0.0119551 -0.0030376 0)
(0.0001647 -0.00322111 0)
(0.029149 -0.000592462 -4.34019e-21)
(-0.0111348 -0.000857898 -4.32151e-24)
(-0.0108884 -0.00256218 -5.69853e-23)
(-0.0103612 -0.00417457 -4.61034e-22)
(-0.00966245 -0.00568268 -2.08565e-23)
(-0.0086093 -0.00695624 -2.74703e-24)
(-0.00762598 -0.00809438 1.40518e-23)
(-0.00594649 -0.00874501 -1.44993e-21)
(-0.0051544 -0.00941812 1.75174e-23)
(-0.00225759 -0.00899293 1.74942e-23)
(-0.00301908 -0.00929541 -1.00536e-22)
(0.00323136 -0.00704296 4.48367e-21)
(-0.00216697 -0.00728891 0)
(0.0131858 -0.00308377 8.41653e-21)
(0.0027252 -0.00297762 1.12489e-23)
(0.0330233 -0.000565169 -4.35792e-21)
(-0.0113002 -0.000906235 5.7406e-24)
(-0.0110381 -0.00270572 -5.64544e-25)
(-0.0104831 -0.0044086 2.4092e-22)
(-0.00973699 -0.00599585 -1.29519e-23)
(-0.00863333 -0.00733898 -9.61425e-22)
(-0.00756777 -0.00852143 -2.02075e-23)
(-0.00583007 -0.00920909 -1.48222e-21)
(-0.00490343 -0.00986543 -1.0771e-21)
(-0.00197583 -0.00943789 0)
(-0.00248813 -0.00962138 8.615e-23)
(0.0037556 -0.00732357 -4.57005e-21)
(-0.00100898 -0.00732364 -2.61175e-21)
(0.0147507 -0.00303747 -8.64809e-21)
(0.0056479 -0.00274011 1.05291e-23)
(0.0371412 -0.000544104 4.64116e-21)
(-0.0113602 -0.000952306 4.41862e-25)
(-0.0110827 -0.00284248 0)
(-0.0104998 -0.00463122 0)
(-0.00970698 -0.00629286 7.31125e-22)
(-0.00855247 -0.00770021 9.83094e-22)
(-0.00740542 -0.00892169 5.46706e-24)
(-0.0056071 -0.00963903 3.09301e-21)
(-0.00454608 -0.0102722 2.23399e-21)
(-0.00157666 -0.00982942 0)
(-0.00182602 -0.00988542 -4.33818e-22)
(0.00446559 -0.00752153 4.54818e-21)
(0.000411638 -0.00727928 2.5924e-21)
(0.0166694 -0.00291711 -8.49411e-21)
(0.00892219 -0.00251583 3.52419e-21)
(0.0415005 -0.000529051 0)
(-0.0113045 -0.000995772 -6.29831e-24)
(-0.0110117 -0.00297145 -7.08734e-23)
(-0.010401 -0.00484073 -1.01421e-23)
(-0.00956166 -0.00657126 -3.19119e-22)
(-0.00835561 -0.00803671 -1.37768e-23)
(-0.0071271 -0.00929097 0)
(-0.00526475 -0.0100297 -1.56938e-21)
(-0.00406703 -0.0106317 -1.19802e-21)
(-0.00104061 -0.0101602 2.52654e-21)
(-0.00100544 -0.0100794 4.6189e-22)
(0.0053962 -0.00763356 -9.20032e-21)
(0.0021279 -0.00715875 0)
(0.0189539 -0.00274113 8.75413e-21)
(0.0125365 -0.00231023 -3.66955e-21)
(0.0460993 -0.000519409 -4.84614e-21)
(-0.0111219 -0.00103628 6.60986e-24)
(-0.0108138 -0.00309159 6.84083e-23)
(-0.010175 -0.00503535 -2.74242e-22)
(-0.00928915 -0.00682854 -3.9041e-22)
(-0.00803039 -0.00834516 -1.10745e-21)
(-0.00671952 -0.00962504 0)
(-0.00478831 -0.0103759 -2.41268e-23)
(-0.00344863 -0.0109378 2.26592e-23)
(-0.000345352 -0.0104239 -2.58251e-21)
(3.05699e-06 -0.0101977 -4.85075e-23)
(0.0065814 -0.00765981 9.31323e-21)
(0.00416727 -0.0069692 1.80046e-21)
(0.0216101 -0.00252696 8.5986e-21)
(0.0164791 -0.00212697 3.56974e-21)
(0.0509367 -0.00051426 5.12519e-21)
(-0.0108 -0.00107349 -1.30364e-23)
(-0.0104765 -0.00320186 -7.15324e-25)
(-0.00980935 -0.00521331 -6.24307e-25)
(-0.00887642 -0.00706216 -4.28874e-22)
(-0.00756315 -0.00862224 -4.10432e-23)
(-0.00616789 -0.00991972 -2.41914e-23)
(-0.00416125 -0.0106728 2.30358e-23)
(-0.00267102 -0.0111847 0)
(0.000533662 -0.0106154 2.68655e-21)
(0.00122988 -0.0102373 4.99224e-23)
(0.00805278 -0.00760372 -9.74683e-23)
(0.00655134 -0.00672078 -3.59391e-21)
(0.0246388 -0.00229025 -1.73493e-20)
(0.0207389 -0.00196802 -1.14568e-22)
(0.0560127 -0.000512445 0)
(-0.0103256 -0.00110705 7.1489e-24)
(-0.0099866 -0.00330119 0)
(-0.00929025 -0.00537285 3.02721e-22)
(-0.0083093 -0.00726964 -1.83629e-23)
(-0.00693896 -0.00886473 -4.20506e-23)
(-0.00545591 -0.010171 -2.52681e-23)
(-0.00336523 -0.0109157 -1.81199e-21)
(-0.00171242 -0.0113678 -1.60197e-21)
(0.00162256 -0.0107313 -5.47863e-21)
(0.00270522 -0.0101978 5.13e-23)
(0.00983861 -0.00747161 -9.45389e-21)
(0.00929591 -0.00642531 3.19057e-21)
(0.0280366 -0.00204434 8.8003e-21)
(0.0253059 -0.0018338 -7.29963e-21)
(0.0613282 -0.000512642 -5.38854e-21)
(-0.00968453 -0.00113661 8.01395e-25)
(-0.00932957 -0.00338858 -8.85763e-23)
(-0.00860303 -0.00551227 -3.16214e-22)
(-0.00757247 -0.00744859 4.45746e-22)
(-0.0061416 -0.00906961 1.19503e-21)
(-0.00456585 -0.0103753 1.44777e-21)
(-0.00238035 -0.0111009 1.82669e-21)
(-0.000549516 -0.0114836 1.61858e-21)
(0.00294822 -0.0107702 2.79284e-21)
(0.00445807 -0.0100817 5.26182e-23)
(0.0119632 -0.00727205 1.22322e-23)
(0.0124115 -0.00609519 -1.51307e-21)
(0.031798 -0.00179998 -8.53641e-21)
(0.0301719 -0.00172336 7.35475e-21)
(0.0668851 -0.000513438 5.69678e-21)
(-0.00886151 -0.00116186 0)
(-0.00849004 -0.00346307 8.81457e-23)
(-0.00773191 -0.00562997 -1.23809e-23)
(-0.00664948 -0.00759682 0)
(-0.00515362 -0.00923415 1.32706e-21)
(-0.00347868 -0.0105296 -1.42524e-21)
(-0.00118535 -0.0112254 1.91965e-21)
(0.000841989 -0.0115301 2.82546e-23)
(0.00453754 -0.0107329 -3.36524e-23)
(0.0065154 -0.00989359 -1.40337e-21)
(0.0144464 -0.00701512 4.79348e-21)
(0.015904 -0.00574241 0)
(0.0359157 -0.00156521 8.76844e-21)
(0.0353308 -0.00163465 -8.608e-23)
(0.0726865 -0.000513405 -1.74223e-23)
(-0.00784038 -0.00118251 8.84558e-25)
(-0.00745163 -0.00352376 -5.13312e-24)
(-0.00666007 -0.00572451 3.48101e-22)
(-0.00552282 -0.00771236 1.84472e-23)
(-0.00395645 -0.00935602 -2.68738e-21)
(-0.00217418 -0.0106314 2.85821e-23)
(0.000242059 -0.0112873 2.62397e-23)
(0.00248692 -0.0115067 -1.92625e-21)
(0.00641672 -0.0106216 2.93733e-21)
(0.00890154 -0.0096401 1.54379e-21)
(0.017304 -0.00671162 -4.96376e-23)
(0.0197758 -0.00537781 -8.74389e-22)
(0.0403823 -0.00134543 -7.69772e-23)
(0.0407785 -0.00156475 -3.77047e-21)
(0.0787363 -0.000511159 0)
(-0.00660401 -0.00119829 0)
(-0.00619702 -0.00356988 -4.43087e-24)
(-0.00536977 -0.00579462 4.3779e-24)
(-0.00417398 -0.00779357 0)
(-0.00253051 -0.00943338 -4.31418e-23)
(-0.00063122 -0.0106789 1.66305e-21)
(0.00192486 -0.0112857 -2.12482e-21)
(0.00441011 -0.0114144 1.97701e-21)
(0.00861066 -0.0104406 -3.00972e-21)
(0.0116378 -0.00932905 5.60589e-23)
(0.0205479 -0.0063723 -4.81299e-21)
(0.0240265 -0.0050105 9.75236e-22)
(0.0451909 -0.00114358 0)
(0.0465134 -0.0015101 3.67646e-21)
(0.0850395 -0.000505417 0)
(-0.00513442 -0.00120898 9.68221e-25)
(-0.00470799 -0.00360076 3.64496e-24)
(-0.00384232 -0.00583927 -3.74545e-22)
(-0.00258354 -0.00783914 -1.41876e-23)
(-0.000855324 -0.00946493 2.87486e-21)
(0.00117208 -0.0106713 -1.61416e-21)
(0.00388639 -0.0112209 -2.95533e-23)
(0.00663595 -0.0112554 0)
(0.0111426 -0.0101953 3.14523e-21)
(0.0147426 -0.00896904 -3.61067e-23)
(0.0241863 -0.0060073 4.87833e-21)
(0.0286542 -0.00464761 5.39367e-23)
(0.0503359 -0.000960469 8.3094e-21)
(0.0525363 -0.00146681 -3.80828e-21)
(0.0916016 -0.000495038 6.38203e-21)
(-0.00341278 -0.0012144 1.08964e-23)
(-0.00296548 -0.00361588 -4.78326e-24)
(-0.00205824 -0.00585767 7.89275e-22)
(-0.000731305 -0.00784819 0)
(0.00109025 -0.00944996 -1.44173e-21)
(0.00325807 -0.0106086 1.71319e-21)
(0.00614999 -0.0110941 -4.77656e-24)
(0.00918798 -0.0110332 -2.19202e-21)
(0.0140336 -0.00989209 -3.14429e-21)
(0.018231 -0.00856881 0)
(0.028225 -0.00562556 0)
(0.0336562 -0.00429411 7.88927e-23)
(0.0558132 -0.000795117 -8.69603e-21)
(0.05885 -0.00143085 0)
(0.0984289 -0.000479053 -1.33011e-20)
(-0.0014195 -0.00121443 -1.19907e-23)
(-0.000949721 -0.00361489 1.04495e-24)
(2.67721e-06 -0.00584932 2.74198e-23)
(0.0014036 -0.00782025 5.69001e-22)
(0.0033279 -0.00938836 0)
(0.00564933 -0.0104913 8.60072e-23)
(0.0087387 -0.0109077 -3.16583e-23)
(0.0120886 -0.0107524 4.56523e-21)
(0.0173029 -0.00953798 3.18287e-21)
(0.0221159 -0.00813679 2.14034e-21)
(0.0326676 -0.00523458 0)
(0.0390299 -0.00395291 0)
(0.0616211 -0.000645189 9.33376e-24)
(0.065459 -0.00139828 -3.68466e-21)
(0.105528 -0.000456689 1.11019e-22)
(0.000865673 -0.001209 -5.97114e-24)
(0.00135977 -0.00359757 0)
(0.00236128 -0.00581399 -3.97899e-22)
(0.00384259 -0.00775528 -6.03088e-22)
(0.00587965 -0.00928062 -8.03293e-22)
(0.00836846 -0.0103212 8.4223e-23)
(0.011675 -0.0106646 -3.2662e-23)
(0.0153589 -0.010418 -2.38618e-21)
(0.0209675 -0.00914009 -3.26397e-21)
(0.0264076 -0.00768069 -2.09155e-21)
(0.0375167 -0.00484013 0)
(0.0447734 -0.00362504 -2.39419e-22)
(0.0677599 -0.000507391 0)
(0.0723696 -0.00136537 1.37429e-22)
(0.112905 -0.000427375 7.13198e-21)
(0.00346361 -0.00119809 4.86556e-24)
(0.00398401 -0.00356391 1.27261e-22)
(0.00503893 -0.00575177 1.13295e-23)
(0.00660743 -0.00765367 6.06816e-22)
(0.00876774 -0.0091278 8.08065e-22)
(0.0114379 -0.0101001 -1.91198e-21)
(0.0149807 -0.0103688 -3.90063e-23)
(0.0190185 -0.0100355 -9.57308e-24)
(0.0250425 -0.00870535 4.44307e-23)
(0.0311147 -0.00720721 5.97267e-23)
(0.0427741 -0.00444629 -2.14098e-23)
(0.0508861 -0.00330993 1.36109e-22)
(0.0742321 -0.000377862 5.99161e-23)
(0.0795893 -0.0013288 3.8425e-21)
(0.120568 -0.000390745 7.19614e-21)
(0.00639568 -0.00118175 0)
(0.00694453 -0.00351405 -1.26807e-22)
(0.00805737 -0.00566302 5.40021e-24)
(0.0097202 -0.00751625 -6.26336e-22)
(0.0120144 -0.00893147 2.92052e-23)
(0.0148796 -0.009831 7.30154e-24)
(0.0186767 -0.0100243 -3.45378e-23)
(0.0230858 -0.00961068 0)
(0.0295413 -0.00824025 3.36848e-21)
(0.0362445 -0.00672183 0)
(0.0484418 -0.00405552 -4.73492e-21)
(0.057369 -0.00300577 9.01839e-24)
(0.0810419 -0.000252532 -8.10987e-21)
(0.0871265 -0.00128572 0)
(0.128524 -0.00034663 -1.49352e-20)
(0.00968366 -0.00116007 -1.20346e-24)
(0.0102632 -0.00344831 1.19789e-24)
(0.0114386 -0.00554841 4.8074e-22)
(0.013203 -0.0073442 -1.72858e-23)
(0.0156416 -0.00869367 -8.6978e-22)
(0.0187152 -0.00951691 3.65762e-23)
(0.0227828 -0.00963563 -7.64512e-23)
(0.0275774 -0.00914906 -9.23745e-24)
(0.0344758 -0.0077506 9.13747e-23)
(0.0418036 -0.00622883 1.64513e-23)
(0.0545222 -0.00366882 4.76172e-21)
(0.0642246 -0.0027099 1.18807e-22)
(0.0881957 -0.000127419 1.23464e-20)
(0.09499 -0.00123381 3.47463e-23)
(0.136777 -0.000295046 7.71861e-21)
(0.0133496 -0.00113322 6.8994e-24)
(0.0139621 -0.00336716 -1.37353e-22)
(0.0152048 -0.00540885 1.50191e-23)
(0.0170781 -0.00713907 -6.75512e-22)
(0.0196714 -0.00841681 8.74893e-22)
(0.0229655 -0.00916136 -1.06038e-21)
(0.0273181 -0.0092075 0)
(0.0325092 -0.00865597 -4.93965e-23)
(0.039857 -0.00724142 -3.39911e-21)
(0.0477983 -0.00573124 6.07978e-23)
(0.0610186 -0.00328604 -1.98412e-23)
(0.0714572 -0.00241913 -2.41755e-22)
(0.0957008 1.12182e-06 -4.06277e-21)
(0.103189 -0.00117129 -3.60929e-21)
(0.145336 -0.000236174 -2.32603e-23)
(0.0174158 -0.00110139 -8.19758e-24)
(0.0180635 -0.00327122 1.33422e-22)
(0.0193783 -0.0052455 8.57749e-24)
(0.0213674 -0.00690271 6.78969e-22)
(0.0241251 -0.00810362 -9.0802e-22)
(0.0276509 -0.00876806 2.21179e-23)
(0.0323005 -0.00874447 -3.69425e-23)
(0.0378957 -0.00813633 0)
(0.0456951 -0.00671688 -4.86398e-23)
(0.0542347 -0.00523104 1.06949e-22)
(0.0679354 -0.00290615 -5.68582e-23)
(0.0790725 -0.00213014 0)
(0.103566 0.000136224 -7.04891e-24)
(0.111732 -0.00109697 3.76727e-21)
(0.154205 -0.000170345 0)
(0.0219045 -0.00106485 0)
(0.0225897 -0.00316128 -6.02175e-24)
(0.023981 -0.00505972 -7.48154e-22)
(0.0260928 -0.0066372 -7.12365e-22)
(0.0290236 -0.00775705 1.86346e-21)
(0.0327909 -0.00834083 1.12965e-21)
(0.0377471 -0.00825103 -2.71387e-21)
(0.0437506 -0.00759459 -5.06194e-23)
(0.0519997 -0.00618037 -9.49005e-25)
(0.0611195 -0.0047293 1.07885e-22)
(0.0752779 -0.00252757 4.58537e-21)
(0.0870775 -0.00183977 0)
(0.1118 0.000280383 0)
(0.120628 -0.00101017 0)
(0.163388 -9.80112e-05 0)
(0.026838 -0.00102389 -1.32789e-24)
(0.0275628 -0.00303821 7.46377e-24)
(0.0290351 -0.00485306 9.61486e-24)
(0.0312756 -0.00634486 1.40839e-21)
(0.0343876 -0.00738022 -8.97787e-22)
(0.0384043 -0.00788353 -7.11482e-23)
(0.0436742 -0.00773143 5.4461e-21)
(0.0500869 -0.00703469 -5.11003e-23)
(0.0587801 -0.00563451 4.89709e-23)
(0.0684597 -0.00422639 0)
(0.0830525 -0.00214844 -4.71977e-21)
(0.0954802 -0.00154519 0)
(0.120411 0.000435395 -3.88109e-21)
(0.129885 -0.000910723 -5.3319e-24)
(0.172891 -1.97328e-05 -8.2683e-21)
(0.0322385 -0.000978846 0)
(0.033005 -0.00290301 1.42992e-22)
(0.034562 -0.00462725 -3.00738e-24)
(0.0369369 -0.00602816 -7.22068e-22)
(0.0402368 -0.00697638 9.54078e-22)
(0.0445092 -0.00739999 -1.10085e-21)
(0.0500973 -0.00718971 -4.14039e-21)
(0.056917 -0.00646009 -2.88761e-21)
(0.0660458 -0.00508137 0)
(0.0762625 -0.00372228 6.1221e-23)
(0.0912665 -0.00176694 -5.75671e-23)
(0.104289 -0.00124418 0)
(0.129411 0.000602334 1.36035e-22)
(0.13951 -0.000798897 0)
(0.182716 6.385e-05 8.61604e-21)
(0.0381277 -0.000930083 1.37536e-24)
(0.0389377 -0.00275677 -1.44972e-22)
(0.0405831 -0.00438411 2.57632e-22)
(0.0430971 -0.00568969 0)
(0.0465903 -0.00654879 -9.59565e-22)
(0.0511228 -0.00689395 2.30359e-21)
(0.057031 -0.00662963 1.33539e-21)
(0.0642528 -0.00587383 2.9062e-21)
(0.0738059 -0.00452255 4.98261e-23)
(0.0845361 -0.0032167 6.11686e-23)
(0.0999278 -0.00138151 -5.768e-23)
(0.113514 -0.000935157 -7.75514e-22)
(0.138806 0.000781575 3.94384e-21)
(0.149509 -0.000675352 0)
(0.192867 0.000152035 8.54266e-21)
(0.0445273 -0.000877997 0)
(0.0453823 -0.00260066 1.53555e-22)
(0.0471191 -0.00412559 2.77064e-22)
(0.049776 -0.00533214 7.3567e-24)
(0.0534667 -0.00610078 -2.67861e-23)
(0.0582617 -0.00636907 -1.12234e-21)
(0.0644895 -0.0060547 -1.4318e-21)
(0.0721058 -0.00527863 -5.20327e-23)
(0.0820696 -0.00395937 -1.21635e-24)
(0.0932886 -0.0027094 -2.85432e-21)
(0.109045 -0.000991005 0)
(0.123162 -0.000617294 7.90591e-22)
(0.148605 0.00097284 0)
(0.159887 -0.000541074 3.39022e-21)
(0.203343 0.000244077 -2.25028e-22)
(0.051458 -0.000823006 6.46343e-24)
(0.0523594 -0.0024359 -1.46343e-22)
(0.0541899 -0.0038537 1.54358e-24)
(0.0569927 -0.00495824 0)
(0.0608837 -0.00563566 3.41723e-23)
(0.0659417 -0.0058289 7.36069e-24)
(0.0724862 -0.00546824 2.76249e-21)
(0.080487 -0.00467695 -5.21765e-23)
(0.0908461 -0.00339305 -1.26103e-24)
(0.102528 -0.0022003 3.05099e-21)
(0.118625 -0.000594823 -5.77159e-23)
(0.133242 -0.0002905 0)
(0.158814 0.00117527 -4.03386e-24)
(0.170648 -0.000397317 -3.48796e-21)
(0.214148 0.000339206 -2.35812e-22)
(0.0589402 -0.000765546 -7.90735e-24)
(0.059889 -0.00226378 -6.56847e-24)
(0.0618151 -0.00357054 -5.08787e-22)
(0.0647657 -0.00457079 -2.02506e-23)
(0.068858 -0.00515672 -9.91586e-22)
(0.0741777 -0.0052769 1.18586e-21)
(0.0810339 -0.00487343 -1.41022e-21)
(0.0894073 -0.00407114 -1.54593e-21)
(0.100144 -0.00282484 5.04976e-23)
(0.112264 -0.00168968 6.06312e-23)
(0.128678 -0.000193005 -2.27254e-21)
(0.143763 4.45966e-05 -7.41321e-23)
(0.169441 0.0013875 6.85753e-23)
(0.181794 -0.000245545 0)
(0.225279 0.000436646 -2.46586e-22)
(0.0669934 -0.000706067 0)
(0.0679903 -0.00208561 -7.55561e-23)
(0.0700132 -0.00327821 2.69624e-22)
(0.0731125 -0.00417259 0)
(0.0774058 -0.00466724 6.97913e-25)
(0.0829839 -0.00471647 -1.96473e-24)
(0.0901446 -0.00427334 0)
(0.0988767 -0.00346352 1.45453e-21)
(0.109973 -0.00225615 1.86091e-21)
(0.122503 -0.00117821 -4.98818e-23)
(0.13921 0.000213757 4.48271e-21)
(0.15473 0.000386711 -4.01038e-23)
(0.180488 0.00160776 -3.05119e-24)
(0.193328 -8.73794e-05 -3.21159e-21)
(0.236736 0.000535624 -9.1631e-21)
(0.0756365 -0.000645029 -1.4425e-24)
(0.0766818 -0.00190273 7.0665e-23)
(0.0788018 -0.0029789 6.61345e-24)
(0.0820495 -0.00376648 7.4401e-22)
(0.0865421 -0.00417049 3.01239e-23)
(0.0923737 -0.00415094 -1.15777e-21)
(0.0998297 -0.003671 -1.44822e-21)
(0.108905 -0.00285646 -1.55351e-21)
(0.120341 -0.00168864 -1.67394e-21)
(0.133254 -0.000667098 9.95565e-24)
(0.150229 0.000624132 -7.10059e-23)
(0.166149 0.000733986 5.55221e-22)
(0.19196 0.00183396 -3.56818e-21)
(0.205248 7.54521e-05 3.30516e-21)
(0.248518 0.00063539 0)
(0.084887 -0.000582897 0)
(0.0859808 -0.00171652 -7.61214e-23)
(0.0881976 -0.00267479 2.07686e-23)
(0.0915923 -0.00335531 -2.2525e-23)
(0.0962809 -0.00366972 2.00582e-21)
(0.102359 -0.00358366 -4.13227e-23)
(0.1101 -0.0030695 1.41222e-21)
(0.119501 -0.00225249 1.55928e-21)
(0.131255 -0.00112429 1.74087e-21)
(0.144523 -0.000158028 1.50428e-21)
(0.161739 0.00103619 -5.73688e-23)
(0.178024 0.00108408 -5.00774e-23)
(0.203857 0.00206376 3.70673e-21)
(0.217555 0.000241159 1.96955e-24)
(0.260622 0.000735221 -8.9781e-21)
(0.0947617 -0.000520145 -1.44741e-24)
(0.0959035 -0.00152836 7.12058e-23)
(0.098216 -0.00236807 6.64949e-24)
(0.101755 -0.00294192 -7.77703e-22)
(0.106635 -0.00316818 -9.71507e-22)
(0.112952 -0.00301796 6.99142e-24)
(0.120964 -0.00247196 -4.04921e-23)
(0.130672 -0.00165431 1.44631e-21)
(0.142723 -0.000565441 -1.75928e-21)
(0.156316 0.000346799 3.34823e-23)
(0.173746 0.0014475 -1.50746e-23)
(0.190359 0.00143428 -1.3358e-21)
(0.216182 0.00229468 -3.44656e-21)
(0.230246 0.000407924 3.01399e-21)
(0.273044 0.000834439 9.27185e-21)
(0.105276 -0.000457243 0)
(0.106465 -0.00133964 0)
(0.108871 -0.00206096 0)
(0.112552 -0.00252918 0)
(0.117616 -0.00266915 0)
(0.124161 -0.00245724 4.11e-23)
(0.132431 -0.00188163 -8.63376e-23)
(0.142426 -0.00106486 -3.00882e-21)
(0.154749 -1.47935e-05 1.01358e-22)
(0.168638 0.000844729 -1.51379e-21)
(0.186253 0.00185515 -2.1975e-21)
(0.203153 0.0017816 1.34838e-21)
(0.228931 0.00252414 6.89757e-21)
(0.243317 0.000573941 -6.03172e-21)
(0.28578 0.000932413 0)
(0.116444 -0.000394663 6.30723e-24)
(0.117679 -0.00115175 8.10344e-24)
(0.120177 -0.00175568 -6.63451e-24)
(0.123993 -0.00211993 0)
(0.129235 -0.00217589 0)
(0.135997 -0.00190491 4.08852e-23)
(0.144508 -0.00130185 1.34536e-21)
(0.154769 -0.000487286 2.93713e-21)
(0.167338 0.000524615 -1.64693e-21)
(0.181491 0.00133271 0)
(0.19926 0.00225594 4.30421e-23)
(0.216409 0.00212285 -3.0734e-23)
(0.242103 0.00274954 -3.44644e-21)
(0.256765 0.00073744 5.88209e-21)
(0.298825 0.00102857 0)
(0.128279 -0.000332872 -7.77937e-24)
(0.129558 -0.000966079 0)
(0.132143 -0.00145442 2.06498e-23)
(0.13609 -0.00171704 -4.82846e-23)
(0.141501 -0.0016917 2.75111e-23)
(0.148466 -0.00136444 0)
(0.157201 -0.000736097 -1.39504e-21)
(0.167704 7.50414e-05 -1.54594e-21)
(0.180495 0.00104945 1.76135e-21)
(0.194879 0.00180738 0)
(0.212769 0.00264639 0)
(0.230122 0.00245479 -6.45608e-22)
(0.255695 0.00296831 -6.48294e-23)
(0.270584 0.000896714 -5.73005e-21)
(0.312174 0.00112238 0)
(0.140791 -0.000272331 -1.41997e-24)
(0.142113 -0.000784003 -5.18289e-24)
(0.144782 -0.00115937 -1.3958e-23)
(0.148852 -0.00132334 -3.60776e-22)
(0.154421 -0.00121984 -3.41214e-23)
(0.161575 -0.000839354 1.20405e-21)
(0.170515 -0.000187954 0)
(0.181236 0.000618572 -4.98573e-23)
(0.194219 0.00155614 1.70425e-21)
(0.2088 0.00226513 5.60718e-23)
(0.226778 0.0030229 -5.42538e-23)
(0.244291 0.00277412 0)
(0.269701 0.00317797 0)
(0.284768 0.00105013 2.85636e-21)
(0.32582 0.00121341 0)
(0.15399 -0.000213492 3.67343e-24)
(0.155352 -0.000606876 7.42241e-23)
(0.1581 -0.000872704 0)
(0.162285 -0.000941639 -2.2415e-23)
(0.168001 -0.00076361 6.09542e-23)
(0.175328 -0.000333178 -2.40978e-21)
(0.184453 0.000338926 -1.30679e-21)
(0.195366 0.00113962 1.39467e-21)
(0.208512 0.00204095 -3.94585e-23)
(0.223254 0.00270222 4.81948e-23)
(0.241283 0.0033818 4.21801e-23)
(0.258911 0.00307765 2.43834e-23)
(0.284115 0.00337612 -6.20909e-23)
(0.29931 0.00119617 0)
(0.339758 0.00130125 0)
(0.167885 -0.000156793 -5.07774e-24)
(0.169284 -0.000436024 -7.31572e-23)
(0.172105 -0.000596534 0)
(0.176397 -0.000574716 4.06969e-22)
(0.182246 -0.000326235 -2.68802e-23)
(0.189729 0.000150551 1.166e-21)
(0.199015 0.000840849 1.35478e-21)
(0.210094 0.00163441 -1.4545e-21)
(0.223371 0.00250003 -1.59668e-21)
(0.238239 0.00311486 -4.76012e-23)
(0.25628 0.00371946 0)
(0.273975 0.00336226 8.1494e-22)
(0.29893 0.00356053 -6.06264e-23)
(0.314203 0.0013334 -2.44556e-25)
(0.353979 0.00138557 0)
(0.18248 -0.000102657 0)
(0.183914 -0.000272735 0)
(0.186801 -0.000332924 0)
(0.191189 -0.000225266 -3.7008e-22)
(0.197158 8.91034e-05 -4.75051e-22)
(0.204777 0.000608342 0)
(0.214203 0.00131413 0)
(0.225417 0.00209916 -4.77568e-23)
(0.238794 0.00292955 -1.19499e-24)
(0.253748 0.00349928 1.00089e-22)
(0.271763 0.00403235 -5.16919e-23)
(0.289476 0.00362502 -1.51636e-21)
(0.314138 0.00372908 4.95453e-25)
(0.329437 0.0014605 -4.71503e-25)
(0.368475 0.00146608 0)
(0.197782 -5.14875e-05 0)
(0.199246 -0.000118243 0)
(0.202193 -8.38593e-05 -2.56978e-22)
(0.206666 0.000104101 3.71835e-22)
(0.212738 0.000479319 4.14914e-23)
(0.220474 0.00103678 -3.23007e-23)
(0.230013 0.00175514 0)
(0.241334 0.00253015 1.33739e-21)
(0.254776 0.00332574 -1.14514e-24)
(0.269776 0.00385183 4.61943e-23)
(0.287723 0.00431711 1.85314e-21)
(0.305406 0.00386318 7.85806e-22)
(0.329728 0.00387986 -5.75022e-23)
(0.345003 0.00157629 -6.78063e-25)
(0.38324 0.00154256 0)
(0.213791 -3.66289e-06 -1.32363e-24)
(0.215282 2.62808e-05 -6.27892e-23)
(0.21828 0.000148773 -1.36464e-24)
(0.222826 0.000410898 -2.60825e-23)
(0.228986 0.00084146 4.96871e-22)
(0.236816 0.00143259 3.76939e-23)
(0.246443 0.00216039 1.23077e-21)
(0.257838 0.00292376 -1.43977e-21)
(0.27131 0.00368495 -1.09121e-24)
(0.286315 0.00416903 4.53926e-23)
(0.304153 0.00457057 -6.37021e-23)
(0.321756 0.00407423 0)
(0.345692 0.00401111 -2.75896e-21)
(0.360892 0.00167968 2.31424e-21)
(0.398263 0.00161479 -8.07821e-21)
(0.230509 4.04665e-05 0)
(0.232022 0.000159744 7.06546e-23)
(0.235063 0.000363206 2.35248e-22)
(0.239668 0.000692791 1.90507e-23)
(0.245897 0.00117275 3.16202e-23)
(0.253799 0.00179268 -6.08738e-22)
(0.263485 0.00252657 -1.23891e-21)
(0.274922 0.00327658 -4.51505e-23)
(0.288387 0.00400378 -1.03409e-24)
(0.303356 0.00444766 4.45344e-23)