/*--------------------------------*- C++ -*----------------------------------*\
| =========                 |                                                 |
| \\      /  F ield         | OpenFOAM: The Open Source CFD Toolbox           |
|  \\    /   O peration     | Version:  2.4.0                                 |
|   \\  /    A nd           | Web:      www.OpenFOAM.org                      |
|    \\/     M anipulation  |                                                 |
\*---------------------------------------------------------------------------*/
FoamFile
{
    version     2.0;
    format      ascii;
    class       volScalarField;
    location    "0.01";
    object      p;
}
// * * * * * * * * * * * * * * * * * * * * * * * * * * * * * * * * * * * * * //

dimensions      [0 2 -2 0 0 0 0];

internalField   nonuniform List<scalar> 
7200
(
8.51367e-05
-0.0308057
-0.029415
0.0669388
0.211428
0.349202
0.47416
0.595586
0.711147
0.801168
0.83687
0.792598
0.656747
0.43641
0.156971
-0.143795
-0.423419
-0.644163
-0.780625
-0.825558
-0.790349
-0.700529
-0.584913
-0.463298
-0.338128
-0.200192
-0.0556586
0.0405072
0.0413464
0.0103233
-0.00503675
-0.0377452
-0.0124608
0.106249
0.250301
0.375744
0.487291
0.594324
0.692402
0.762953
0.781845
0.729212
0.597501
0.394323
0.14175
-0.128566
-0.381301
-0.584849
-0.717136
-0.770427
-0.752066
-0.681778
-0.583696
-0.4765
-0.364739
-0.239111
-0.0949816
0.0236093
0.0483433
0.0154447
-0.0117643
-0.0408205
0.0120667
0.146784
0.283933
0.395573
0.493977
0.586783
0.668092
0.721097
0.726004
0.667673
0.54153
0.355194
0.127707
-0.114504
-0.342131
-0.528796
-0.655477
-0.714458
-0.710119
-0.657437
-0.576181
-0.483243
-0.384632
-0.272799
-0.135555
-0.000928113
0.051506
0.0222192
-0.0200506
-0.0383418
0.0429342
0.186161
0.312068
0.409942
0.495932
0.575366
0.641702
0.680055
0.67421
0.612554
0.492507
0.32138
0.115653
-0.102419
-0.308264
-0.479683
-0.600231
-0.662527
-0.66897
-0.630999
-0.564772
-0.48524
-0.399058
-0.300992
-0.174984
-0.0318247
0.0491072
0.0305734
-0.0295549
-0.0288519
0.0795257
0.223826
0.335488
0.419871
0.493885
0.560585
0.613367
0.639243
0.624984
0.561678
0.448111
0.291111
0.104926
-0.0916486
-0.277933
-0.43519
-0.549223
-0.613156
-0.62804
-0.602601
-0.549985
-0.483227
-0.409042
-0.324477
-0.212714
-0.0684551
0.0396804
0.0401478
-0.0394076
-0.0110593
0.120382
0.258482
0.354188
0.425666
0.48813
0.542782
0.583358
0.598629
0.577846
0.514182
0.407349
0.263601
0.0952281
-0.0818968
-0.250351
-0.394324
-0.501589
-0.565867
-0.587298
-0.572516
-0.532164
-0.477499
-0.414891
-0.343247
-0.247445
-0.109354
0.021937
0.050067
-0.0482234
0.0158236
0.163437
0.288772
0.368058
0.427449
0.478881
0.522344
0.552124
0.558553
0.532905
0.469935
0.369956
0.238602
0.0864606
-0.0730642
-0.225271
-0.35682
-0.457199
-0.52077
-0.547084
-0.541194
-0.511697
-0.468271
-0.416727
-0.357191
-0.277817
-0.152456
-0.00490801
0.0589481
-0.0541608
0.0518392
0.206304
0.313727
0.37722
0.425424
0.466437
0.499707
0.520119
0.519336
0.49026
0.428822
0.335698
0.215901
0.0785375
-0.0650654
-0.20248
-0.322446
-0.41594
-0.477962
-0.50772
-0.509088
-0.48902
-0.455839
-0.414754
-0.366428
-0.302854
-0.195378
-0.0408978
0.0649537
-0.0549924
0.0961726
0.246522
0.332828
0.381962
0.419842
0.451141
0.475308
0.487742
0.481221
0.449935
0.39068
0.304325
0.195279
0.0713734
-0.0578156
-0.181759
-0.29095
-0.377646
-0.437468
-0.469448
-0.476598
-0.464568
-0.440548
-0.409221
-0.371246
-0.322039
-0.235657
-0.0852208
0.0658599
-0.0482168
0.147116
0.28178
0.345998
0.38265
0.410971
0.433367
0.44957
0.455348
0.444398
0.411923
0.355341
0.275599
0.176537
0.0648912
-0.0512385
-0.162911
-0.262094
-0.342149
-0.39928
-0.432457
-0.444078
-0.438766
-0.422771
-0.400395
-0.372006
-0.33529
-0.270984
-0.136174
0.0591669
-0.03121
0.202118
0.310146
0.353549
0.379665
0.3991
0.413508
0.422896
0.423246
0.409017
0.376196
0.322642
0.249304
0.159499
0.0590235
-0.0452672
-0.145758
-0.235663
-0.309286
-0.36337
-0.396899
-0.411838
-0.412015
-0.4029
-0.388564
-0.369091
-0.342917
-0.299425
-0.19121
0.042249
-0.00140364
0.257915
0.330261
0.356101
0.373368
0.384541
0.391968
0.395659
0.391705
0.375191
0.342711
0.292427
0.225246
0.144009
0.0537109
-0.0398431
-0.130147
-0.211464
-0.278903
-0.329695
-0.362887
-0.380146
-0.384688
-0.381337
-0.374037
-0.362857
-0.34554
-0.319617
-0.247067
0.0125341
0.043524
0.310742
0.341476
0.354465
0.364065
0.367632
0.369148
0.368199
0.360952
0.343005
0.311413
0.264548
0.203249
0.129927
0.048901
-0.0349144
-0.115938
-0.18932
-0.25085
-0.298201
-0.330503
-0.349228
-0.357125
-0.358482
-0.357151
-0.353611
-0.343969
-0.330909
-0.299982
-0.032305
0.105463
0.356605
0.34392
0.349515
0.352009
0.348743
0.345439
0.340821
0.331176
0.312512
0.282237
0.238863
0.183151
0.117131
0.0445474
-0.0304352
-0.103009
-0.169071
-0.224987
-0.268823
-0.299804
-0.319275
-0.329628
-0.334724
-0.338272
-0.341604
-0.339077
-0.333423
-0.345958
-0.0941648
0.18571
0.391583
0.338483
0.342061
0.337413
0.32827
0.321203
0.31379
0.302531
0.283744
0.255113
0.215238
0.164805
0.105509
0.0406086
-0.026365
-0.0912476
-0.150569
-0.20118
-0.24149
-0.27082
-0.29044
-0.302464
-0.310425
-0.317797
-0.327047
-0.331674
-0.328046
-0.381068
-0.174348
0.284848
0.412134
0.326724
0.332742
0.320472
0.306632
0.296772
0.287337
0.275142
0.256715
0.229963
0.193545
0.148078
0.0949604
0.0370479
-0.0226676
-0.0805562
-0.133683
-0.179303
-0.216127
-0.243565
-0.262846
-0.275862
-0.285915
-0.296142
-0.310133
-0.322399
-0.316335
-0.401765
-0.273445
0.402678
0.415379
0.310711
0.321949
0.301405
0.284255
0.272436
0.26166
0.249102
0.231418
0.206709
0.173664
0.132847
0.0853966
0.0338323
-0.0193107
-0.0708456
-0.118291
-0.159235
-0.192656
-0.218036
-0.236589
-0.250019
-0.261483
-0.273732
-0.29108
-0.311645
-0.300353
-0.405159
-0.391258
0.538211
0.399321
0.29281
0.309799
0.280486
0.261552
0.248444
0.236922
0.224481
0.207837
0.18527
0.155483
0.119001
0.0767368
0.0309324
-0.0162655
-0.0620355
-0.104282
-0.140865
-0.170996
-0.194215
-0.211739
-0.225098
-0.237375
-0.250979
-0.270161
-0.299526
-0.282467
-0.389246
-0.526801
0.689718
0.362992
0.275451
0.29614
0.258076
0.238907
0.225002
0.213262
0.201326
0.185943
0.165563
0.138895
0.106438
0.0689078
0.0283217
-0.0135061
-0.0540538
-0.0915532
-0.124087
-0.151067
-0.172073
-0.188341
-0.201238
-0.213799
-0.228266
-0.247734
-0.285891
-0.265106
-0.353049
-0.678346
0.854842
0.306508
0.260898
0.280607
0.234635
0.21665
0.202281
0.190791
0.179664
0.165697
0.147509
0.123798
0.0950631
0.0618436
0.0259762
-0.0110094
-0.0468347
-0.0800127
-0.108801
-0.13279
-0.151575
-0.166425
-0.178548
-0.190924
-0.20592
-0.224258
-0.270372
-0.250539
-0.296676
-0.843534
1.03074
0.231027
0.251049
0.2627
0.210719
0.195038
0.180422
0.169594
0.159505
0.147055
0.131025
0.110099
0.0847907
0.0554839
0.0238744
-0.00875417
-0.0403189
-0.0695744
-0.0949137
-0.116082
-0.132677
-0.146001
-0.157115
-0.168888
-0.1842
-0.200289
-0.252472
-0.240663
-0.22128
-1.01952
1.21427
0.138625
0.247283
0.241893
0.186963
0.174249
0.159543
0.149738
0.140844
0.129964
0.116031
0.097708
0.0755407
0.0497739
0.0219965
-0.00672146
-0.0344519
-0.060159
-0.0823359
-0.100868
-0.115327
-0.127065
-0.137005
-0.147811
-0.163281
-0.176459
-0.231658
-0.236861
-0.128932
-1.20315
1.40216
0.0321008
0.250371
0.217728
0.164041
0.154372
0.13975
0.131262
0.123663
0.114369
0.10245
0.08654
0.0672395
0.0446633
0.0203248
-0.00489393
-0.029184
-0.0516935
-0.0709842
-0.0870677
-0.0994734
-0.109602
-0.118259
-0.127796
-0.143252
-0.15344
-0.207473
-0.239905
-0.02243
-1.39117
1.59122
-0.0852599
0.260459
0.189912
0.142619
0.135419
0.121139
0.114186
0.107937
0.100211
0.0902041
0.0765156
0.0598186
0.0401059
0.0188428
-0.00325578
-0.0244696
-0.0441099
-0.0607794
-0.0746073
-0.0850574
-0.0935854
-0.100897
-0.108941
-0.124124
-0.131899
-0.179619
-0.249945
0.0949406
-1.58035
1.77846
-0.209941
0.277113
0.158381
0.123307
0.117333
0.103807
0.0985089
0.0936293
0.087428
0.0792187
0.0675589
0.0532143
0.0360591
0.0175355
-0.00179251
-0.0202666
-0.0373452
-0.0516467
-0.0634126
-0.0720187
-0.0789839
-0.0849184
-0.0913421
-0.105838
-0.112444
-0.148029
-0.266546
0.219662
-1.76772
1.96122
-0.338437
0.299418
0.123334
0.106607
0.100012
0.0878453
0.0842068
0.0807014
0.0759542
0.0694207
0.0595984
0.0473675
0.0324837
0.0163892
-0.00049083
-0.0165362
-0.0313404
-0.0435149
-0.0534119
-0.0602944
-0.0657598
-0.0703031
-0.0750917
-0.0882927
-0.0955763
-0.112899
-0.288793
0.348226
-1.9506
2.13727
-0.467469
0.326115
0.0852344
0.0928755
0.0833331
0.0733429
0.071238
0.0691096
0.0657234
0.0607395
0.0525658
0.0422225
0.0293431
0.0153909
0.000661561
-0.0132422
-0.0260406
-0.0363162
-0.0445352
-0.0498195
-0.0538721
-0.057011
-0.0602794
-0.0713639
-0.0816526
-0.0746918
-0.315427
0.47735
-2.12675
2.3048
-0.59414
0.355751
0.0447783
0.0823001
0.0671761
0.0603786
0.0595442
0.058808
0.0566671
0.0531064
0.0463963
0.0377276
0.0266033
0.014529
0.00167603
-0.0103512
-0.0213943
-0.0299863
-0.0367149
-0.0405277
-0.0432778
-0.0449867
-0.0469864
-0.0549308
-0.0708591
-0.0340985
-0.344991
0.604135
-2.29437
2.46246
-0.716044
0.38683
0.00283402
0.074891
0.0514454
0.0490161
0.0490543
0.0497493
0.048716
0.0464553
0.0410281
0.0338339
0.0242326
0.0137923
0.00256313
-0.00783178
-0.0173528
-0.0244637
-0.0298854
-0.0323509
-0.0339322
-0.0341622
-0.0352785
-0.0388985
-0.0632061
0.00801341
-0.375986
0.72617
-2.4521
2.60933
-0.83131
0.417939
-0.0396292
0.0704922
0.0360877
0.0392962
0.0396887
0.041885
0.0417998
0.040722
0.0364021
0.0304956
0.0222014
0.0131707
0.00333274
-0.00565462
-0.0138705
-0.0196895
-0.0239832
-0.0252204
-0.0257896
-0.0244614
-0.0251999
-0.0232143
-0.0585373
0.0506764
-0.406995
0.841583
-2.59901
2.74481
-0.938595
0.447848
-0.0816205
0.0688066
0.0211005
0.0312308
0.0313637
0.0351653
0.0358481
0.035845
0.0324621
0.0276692
0.0204816
0.0126545
0.00399406
-0.00379216
-0.0109043
-0.0156074
-0.0189469
-0.0190668
-0.0188028
-0.0158044
-0.0167659
-0.00787781
-0.0565558
0.0929004
-0.436786
0.949029
-2.7345
2.86861
-1.03704
0.475577
-0.122201
0.0694315
0.00653471
0.0247983
0.0239966
0.0295387
0.0307907
0.0317647
0.0291539
0.0253139
0.0190472
0.0122346
0.00455573
-0.00221852
-0.00841347
-0.0121636
-0.0147171
-0.013821
-0.0129225
-0.00811221
-0.00995956
0.00705786
-0.0568599
0.133747
-0.464373
1.04765
-2.85828
2.98066
-1.12619
0.500413
-0.160543
0.0719009
-0.00751162
0.0199419
0.0175091
0.0249509
0.0265584
0.0284234
0.0264261
0.0233908
0.0178734
0.0119027
0.00502589
-0.000909244
-0.0063593
-0.00930625
-0.011236
-0.00941423
-0.00809683
-0.0013103
-0.00472861
0.0214909
-0.0589848
0.172387
-0.48904
1.13699
-2.97028
3.08105
-1.20593
0.521913
-0.195975
0.075727
-0.020904
0.0165705
0.0118311
0.0213448
0.0230837
0.0257655
0.0242292
0.021863
0.0169368
0.0116507
0.00541219
0.00015874
-0.00470508
-0.00698596
-0.00844786
-0.00577923
-0.00427011
0.00466789
-0.000987068
0.0352825
-0.0624448
0.208149
-0.510342
1.21694
-3.07059
3.16999
-1.27637
0.539868
-0.228
0.0804376
-0.0334868
0.0145628
0.00690243
0.0186593
0.0203014
0.0237369
0.0225159
0.0206957
0.0162155
0.0114711
0.0057219
0.00100726
-0.00341589
-0.00515531
-0.0062982
-0.00285064
-0.00138251
0.00987944
0.00138154
0.0482718
-0.0667711
0.240534
-0.528067
1.2876
-3.1594
3.24774
-1.33781
0.554265
-0.256302
0.0856063
-0.0450991
0.0137729
0.0026736
0.0168292
0.018149
0.0222852
0.0212412
0.0198554
0.0156884
0.0113567
0.0059619
0.00165697
-0.00245849
-0.00376896
-0.00473401
-0.000565577
0.000630499
0.014371
0.00251784
0.0602923
-0.0715412
0.269223
-0.542203
1.34928
-3.23699
3.31462
-1.39061
0.565235
-0.280734
0.0908727
-0.0555909
0.0140387
-0.000894498
0.0157852
0.0165673
0.0213591
0.020362
0.0193103
0.0153359
0.0113008
0.00613871
0.00212746
-0.00180112
-0.0027837
-0.00370351
0.00113579
0.00183803
0.0181797
0.00257947
0.0711876
-0.0763996
0.294065
-0.55288
1.40235
-3.30367
3.37095
-1.43523
0.573004
-0.301293
0.0959528
-0.0648357
0.0151901
-0.00383213
0.0154543
0.0155007
0.0209084
0.0198373
0.01903
0.0151392
0.0112969
0.00625858
0.00243727
-0.00141346
-0.00215832
-0.00315602
0.00231001
0.00231345
0.0213344
0.00173269
0.080825
-0.0810682
0.315051
-0.560327
1.44726
-3.35977
3.41708
-1.47213
0.577854
-0.318089
0.100641
-0.0727399
0.0170568
-0.00616292
0.0157605
0.0148971
0.0208842
0.019628
0.0189855
0.0150806
0.0113389
0.00632742
0.00260395
-0.00126653
-0.00185365
-0.00304193
0.00301006
0.00213356
0.023858
0.000144292
0.0891049
-0.0853475
0.332288
-0.564827
1.48447
-3.40563
3.45336
-1.50179
0.580089
-0.331321
0.104803
-0.0792483
0.0194762
-0.00790654
0.0166259
0.0147082
0.0212384
0.0196974
0.019149
0.0151433
0.011421
0.00635091
0.00264415
-0.00133259
-0.00183261
-0.00331263
0.00328544
0.00137741
0.0257703
-0.00202521
0.0959668
-0.0891111
0.345967
-0.566691
1.51446
-3.44161
3.48014
-1.52466
0.580011
-0.341242
0.10837
-0.0843454
0.0222985
-0.00908139
0.0179721
0.0148891
0.0219242
0.0200103
0.0194938
0.0153114
0.0115376
0.00633446
0.00257361
-0.0015851
-0.00206008
-0.00392067
0.00318223
0.000124957
0.0270905
-0.00462745
0.10139
-0.0922953
0.356334
-0.566226
1.5377
-3.46804
3.49775
-1.5412
0.577908
-0.348136
0.111321
-0.0880534
0.0253911
-0.00970712
0.0197213
0.0153979
0.0228957
0.0205338
0.0199947
0.0155701
0.0116833
0.00628323
0.00240721
-0.0019987
-0.00250288
-0.00481978
0.00274344
-0.00154434
0.0278396
-0.00753004
0.105394
-0.0948858
0.363667
-0.563727
1.55462
-3.48529
3.50655
-1.55185
0.574045
-0.3523
0.113673
-0.0904276
0.0286404
-0.00980664
0.021798
0.0161954
0.0241084
0.0212367
0.0206273
0.0159051
0.0118533
0.00620221
0.00215895
-0.00254911
-0.00312981
-0.00596501
0.0020093
-0.00355311
0.0280424
-0.0106188
0.108032
-0.096905
0.368256
-0.559465
1.56566
-3.49369
3.50687
-1.55701
0.56866
-0.35403
0.115467
-0.0915503
0.0319527
-0.00940755
0.0241298
0.0172445
0.0255192
0.0220897
0.0213683
0.0163032
0.0120425
0.0060961
0.00184209
-0.00321318
-0.00391147
-0.00731298
0.00101772
-0.00582722
0.0277287
-0.0137983
0.109384
-0.0983984
0.370388
-0.553688
1.57124
-3.49359
3.49904
-1.55711
0.561966
-0.353608
0.11676
-0.0915242
0.0352527
-0.00854291
0.0266487
0.0185103
0.0270869
0.0230651
0.0221959
0.0167519
0.0122466
0.0059694
0.00146909
-0.00396891
-0.00482022
-0.00882206
-0.000195332
-0.00829703
0.026934
-0.0169913
0.109553
-0.0994247
0.370342
-0.546616
1.57175
-3.48534
3.48338
-1.5525
0.554154
-0.3513
0.117611
-0.0904654
0.0384825
-0.00725147
0.0292918
0.0199588
0.0287719
0.0241371
0.0230889
0.0172394
0.0124613
0.0058264
0.00105166
-0.00479538
-0.00583011
-0.0104525
-0.00159543
-0.0108981
0.0256994
-0.0201368
0.108658
-0.100047
0.368379
-0.538446
1.56756
-3.46925
3.46021
-1.54357
0.54539
-0.347352
0.118084
-0.0884977
0.0415985
-0.00557721
0.032002
0.0215575
0.0305368
0.0252814
0.0240278
0.0177548
0.0126823
0.00567115
0.000600766
-0.00567284
-0.00691678
-0.0121669
-0.00314942
-0.0135718
0.0240714
-0.0231881
0.106825
-0.100327
0.36474
-0.529351
1.55902
-3.44565
3.42984
-1.53063
0.535822
-0.341987
0.118235
-0.0857473
0.044569
-0.00356861
0.0347279
0.0232744
0.0323467
0.0264751
0.0249939
0.0182879
0.0129061
0.00550749
0.000126658
-0.00658265
-0.0080574
-0.01393
-0.00482507
-0.0162656
0.0221006
-0.0261103
0.104181
-0.10032
0.35965
-0.519484
1.54648
-3.41484
3.39254
-1.51401
0.525577
-0.335411
0.118116
-0.0823384
0.0473714
-0.00127753
0.0374238
0.0250787
0.0341687
0.0276969
0.0259699
0.0188291
0.0131289
0.00533903
-0.000361084
-0.00750741
-0.00923057
-0.0157091
-0.00659114
-0.0189332
0.0198407
-0.0288778
0.100857
-0.100075
0.353312
-0.508974
1.53023
-3.37714
3.34862
-1.49399
0.514766
-0.327805
0.117768
-0.0783906
0.04999
0.00124201
0.04005
0.0269401
0.035973
0.0289267
0.0269395
0.0193696
0.0133475
0.00516914
-0.000853559
-0.00843091
-0.0104163
-0.017474
-0.00841716
-0.0215338
0.0173476
-0.0314717
0.0969742
-0.0996311
0.34591
-0.497936
1.51056
-3.33284
3.29834
-1.47084
0.503484
-0.319334
0.117227
-0.0740166
0.0524138
0.0039351
0.0425719
0.028829
0.037732
0.0301459
0.0278878
0.0199013
0.0135588
0.00500095
-0.00134253
-0.00933815
-0.0115958
-0.0191974
-0.0102735
-0.0240326
0.0146773
-0.0338784
0.0926499
-0.0990188
0.337611
-0.486463
1.48773
-3.2822
3.24197
-1.44481
0.491811
-0.310145
0.116518
-0.0693205
0.0546345
0.00674721
0.0449601
0.0307169
0.039421
0.0313373
0.0288013
0.0204165
0.0137602
0.00483734
-0.00182041
-0.0102154
-0.0127519
-0.0208545
-0.0121317
-0.0263997
0.0118854
-0.0360875
0.0879917
-0.0982604
0.328566
-0.474634
1.46199
-3.22551
3.17977
-1.4161
0.479812
-0.300369
0.115662
-0.0643978
0.0566458
0.00962532
0.0471895
0.0325764
0.041018
0.0324847
0.0296675
0.0209086
0.0139489
0.00468095
-0.00228021
-0.0110503
-0.0138683
-0.0224231
-0.0139642
-0.0286098
0.0090257
-0.0380907
0.0830982
-0.0973704
0.318908
-0.46251
1.43355
-3.16301
3.11199
-1.38493
0.467536
-0.29012
0.11467
-0.0593343
0.0584421
0.0125188
0.0492393
0.0343815
0.0425038
0.0335735
0.0304754
0.0213712
0.0141229
0.00453413
-0.00271561
-0.0118315
-0.0149303
-0.0238841
-0.015745
-0.030642
0.00614925
-0.0398812
0.0780578
-0.0963568
0.308758
-0.450138
1.40261
-3.09498
3.03887
-1.35146
0.455023
-0.279499
0.113547
-0.0542067
0.0600182
0.0153803
0.0510919
0.0361076
0.0438614
0.0345903
0.0312153
0.0217987
0.0142802
0.00439898
-0.00312086
-0.0125493
-0.0159245
-0.0252204
-0.0174496
-0.0324787
0.00330371
-0.0414525
0.0729495
-0.0952222
0.29822
-0.437553
1.36936
-3.02164
2.96064
-1.31586
0.442299
-0.268596
0.112295
-0.0490828
0.0613687
0.0181662
0.0527334
0.0377322
0.0450767
0.035523
0.0318786
0.0221863
0.0144191
0.00427741
-0.0034909
-0.0131949
-0.0168387
-0.0264179
-0.0190554
-0.034106
0.000532782
-0.0427986
0.0678428
-0.0939642
0.287386
-0.424775
1.33394
-2.94322
2.87754
-1.27827
0.429377
-0.257485
0.110911
-0.0440219
0.0624883
0.0208374
0.0541525
0.0392345
0.046138
0.036361
0.0324582
0.0225297
0.0145381
0.00417096
-0.00382124
-0.0137611
-0.017662
-0.0274647
-0.0205419
-0.0355126
-0.00212423
-0.0439137
0.0627981
-0.0925767
0.276337
-0.411815
1.29651
-2.85996
2.78978
-1.23879
0.416263
-0.246233
0.109387
-0.0390749
0.0633715
0.023359
0.0553406
0.0405964
0.0470358
0.0370948
0.0329481
0.0228251
0.0146362
0.00408095
-0.00410803
-0.0142419
-0.0183851
-0.0283514
-0.0218906
-0.0366898
-0.00463261
-0.044792
0.0578671
-0.0910507
0.265139
-0.398672
1.25719
-2.77207
2.69757
-1.19756
0.40295
-0.234895
0.107714
-0.0342856
0.0640132
0.025701
0.0562915
0.0418018
0.0477632
0.0377169
0.0333438
0.0230695
0.0147125
0.00400843
-0.00434801
-0.0146323
-0.0190001
-0.0290708
-0.0230856
-0.0376316
-0.0069624
-0.0454282
0.0530941
-0.0893744
0.253851
-0.385337
1.21609
-2.67975
2.60112
-1.15465
0.389425
-0.223517
0.105878
-0.0296903
0.0644085
0.0278381
0.0570012
0.0428375
0.0483151
0.0382206
0.0336419
0.0232605
0.0147664
0.00395419
-0.0045386
-0.0149289
-0.0195004
-0.029618
-0.0241135
-0.0383341
-0.00908846
-0.0458175
0.0485156
-0.0875344
0.24252
-0.371793
1.1733
-2.5832
2.50063
-1.11014
0.375665
-0.212138
0.103866
-0.0253192
0.0645531
0.0297498
0.0574681
0.0436927
0.0486889
0.0386013
0.03384
0.0233962
0.0147976
0.00391875
-0.00467781
-0.0151292
-0.019881
-0.0299899
-0.0249637
-0.0387953
-0.0109904
-0.0459557
0.0441618
-0.085516
0.231187
-0.358014
1.12891
-2.48263
2.39627
-1.06411
0.361643
-0.200789
0.101663
-0.0211964
0.0644441
0.0314203
0.0576925
0.0443596
0.0488837
0.0388557
0.0339373
0.0234756
0.0148059
0.00390239
-0.00476433
-0.0152322
-0.0201386
-0.0301858
-0.0256281
-0.039016
-0.0126524
-0.0458398
0.0400565
-0.0833037
0.219882
-0.34397
1.08299
-2.3782
2.28825
-1.01662
0.347323
-0.189495
0.0992536
-0.0173405
0.0640795
0.0328382
0.057677
0.044833
0.048901
0.038982
0.033934
0.0234981
0.0147916
0.00390513
-0.00479746
-0.0152378
-0.0202713
-0.030207
-0.0261017
-0.0389985
-0.0140632
-0.0454682
0.0362181
-0.0808816
0.208631
-0.329625
1.0356
-2.27012
2.17675
-0.967721
0.332669
-0.178277
0.0966216
-0.0137654
0.0634592
0.0339966
0.0574263
0.0451108
0.048744
0.0389801
0.0338313
0.0234639
0.0147551
0.00392675
-0.00477717
-0.0151472
-0.0202788
-0.0300564
-0.0263822
-0.0387476
-0.0152161
-0.0448408
0.0326601
-0.0782343
0.197455
-0.31494
0.986797
-2.15856
2.06195
-0.917465
0.317639
-0.167153
0.0937528
-0.0104804
0.0625854
0.0348925
0.0569476
0.0451936
0.0484178
0.0388515
0.0336317
0.0233738
0.014697
0.00396678
-0.00470406
-0.0149628
-0.0201625
-0.0297393
-0.0264701
-0.0382705
-0.0161084
-0.04396
0.0293915
-0.0753472
0.18637
-0.299872
0.936632
-2.0437
1.94406
-0.865909
0.302192
-0.156138
0.0906341
-0.00749135
0.0614626
0.0355274
0.0562504
0.0450848
0.0479296
0.0385993
0.0333389
0.0232292
0.0146181
0.00402452
-0.00457941
-0.0146879
-0.0199253
-0.0292627
-0.0263687
-0.0375766
-0.0167414
-0.0428304
0.0264176
-0.0722075
0.175392
-0.284379
0.885162
-1.92574
1.82326
-0.813117
0.286289
-0.145248
0.087255
-0.00480049
0.0600982
0.0359065
0.0553466
0.0447907
0.0472883
0.0382282
0.0329574
0.0230321
0.0145197
0.00409905
-0.00440512
-0.0143271
-0.0195717
-0.0286353
-0.0260844
-0.0366778
-0.0171204
-0.0414597
0.0237403
-0.068805
0.164537
-0.268423
0.83245
-1.80488
1.69979
-0.759167
0.269896
-0.134505
0.0836087
-0.00240755
0.0585032
0.0360385
0.054251
0.0443202
0.0465049
0.0377443
0.032493
0.0227852
0.0144029
0.00418919
-0.00418372
-0.0138859
-0.019108
-0.027868
-0.025626
-0.0355889
-0.0172543
-0.039859
0.0213589
-0.0651334
0.153824
-0.251969
0.778575
-1.68134
1.5739
-0.704167
0.25299
-0.123933
0.0796939
-0.00031016
0.0566925
0.035936
0.052981
0.0436853
0.0455921
0.0371555
0.0319524
0.0224919
0.0142692
0.00429365
-0.00391843
-0.0133709
-0.0185418
-0.0269736
-0.0250052
-0.0343275
-0.0171558
-0.0380435
0.0192707
-0.0611915
0.143278
-0.234994
0.723643
-1.55537
1.44588
-0.648265
0.235562
-0.11357
0.075516
0.00149558
0.0546859
0.035615
0.0515572
0.0429002
0.0445645
0.0364713
0.0313432
0.0221561
0.0141204
0.00441084
-0.00361309
-0.0127897
-0.0178823
-0.0259665
-0.0242365
-0.0329139
-0.0168409
-0.036033
0.0174715
-0.0569855
0.132936
-0.217489
0.667803
-1.42728
1.31611
-0.591673
0.217627
-0.103467
0.0710898
0.00301452
0.0525082
0.0350949
0.0500032
0.0419821
0.0434388
0.0357025
0.0306742
0.0217823
0.0139582
0.00453899
-0.00327212
-0.012151
-0.0171405
-0.0248632
-0.0233367
-0.0313719
-0.0163289
-0.0338527
0.0159561
-0.0525307
0.122848
-0.199471
0.611265
-1.29742
1.18506
-0.534692
0.199236
-0.0936955
0.066442
0.00425205
0.0501905
0.0343984
0.0483462
0.0409505
0.0422332
0.0348613
0.0299552
0.0213757
0.0137847
0.00467613
-0.00290054
-0.0114643
-0.0163285
-0.0236821
-0.0223254
-0.0297286
-0.0156428
-0.0315338
0.014719
-0.0478543
0.113086
-0.180991
0.554332
-1.16628
1.05338
-0.477757
0.180484
-0.0843533
0.0616139
0.00521388
0.0477707
0.0335518
0.0466165
0.0398275
0.040968
0.0339616
0.0291965
0.0209418
0.0136021
0.00482014
-0.002504
-0.0107403
-0.01546
-0.0224433
-0.0212247
-0.0280143
-0.0148087
-0.0291145
0.0137542
-0.0429985
0.103747
-0.162147
0.497437
-1.0345
0.92194
-0.421489
0.161531
-0.0755701
0.0566648
0.00590617
0.0452942
0.0325847
0.0448482
0.0386376
0.0396652
0.0330185
0.0284098
0.020487
0.0134128
0.00496868
-0.00208867
-0.0099902
-0.0145501
-0.0211688
-0.020059
-0.0262633
-0.0138561
-0.0266404
0.0130558
-0.0380234
0.094961
-0.1431
0.441203
-0.902962
0.791972
-0.366768
0.14262
-0.0675124
0.0516751
0.00633615
0.0428149
0.0315303
0.0430792
0.0374077
0.0383487
0.0320482
0.0276072
0.0200179
0.0132191
0.00511928
-0.00166128
-0.00922646
-0.0136151
-0.0198825
-0.018855
-0.0245132
-0.0128183
-0.0241656
0.0126164
-0.0330105
0.0868949
-0.124096
0.386511
-0.772885
0.665212
-0.31481
0.12409
-0.0603793
0.0467475
0.00651568
0.0403949
0.0304267
0.0413509
0.0361674
0.0370443
0.0310691
0.0268022
0.0195421
0.0130239
0.00526922
-0.00122934
-0.00846243
-0.0126733
-0.0186102
-0.0176426
-0.0228057
-0.0117332
-0.0217526
0.0124243
-0.0280635
0.0797485
-0.105476
0.334577
-0.646012
0.544007
-0.267155
0.106309
-0.0543598
0.0419883
0.00647489
0.0381001
0.0293207
0.0397076
0.0349511
0.0357799
0.0301014
0.0260094
0.019068
0.0128299
0.00541569
-0.000801324
-0.0077126
-0.0117448
-0.0173795
-0.0164556
-0.0211847
-0.0106475
-0.019467
0.0124496
-0.0232897
0.0737113
-0.0876145
0.286945
-0.524693
0.431446
-0.225928
0.0895886
-0.0496239
0.0374869
0.00625964
0.0359925
0.0282624
0.038189
0.0337893
0.034577
0.0291604
0.0252382
0.0186009
0.0126384
0.00555671
-0.000383128
-0.00698702
-0.0108454
-0.0162125
-0.015325
-0.0196903
-0.00961145
-0.0173715
0.0126462
-0.0187798
0.0689532
-0.0708252
0.245742
-0.412016
0.33405
-0.196247
0.0751222
-0.0468163
0.0335575
0.00578379
0.0341952
0.0272504
0.0368426
0.0326812
0.0334472
0.0282396
0.0244875
0.0181351
0.0124488
0.00569096
2.90676e-05
-0.00628638
-0.00997008
-0.0151222
-0.0142511
-0.0183709
-0.008624
-0.0155902
0.0131001
-0.0148514
0.0661196
-0.0563119
0.216092
-0.314504
0.270324
-0.192105
0.0701747
-0.0490871
0.0320296
0.00427743
0.0332175
0.0260758
0.035832
0.0315721
0.0324581
0.0273314
0.0237907
0.0176709
0.0122747
0.00580768
0.000437873
-0.00564175
-0.00910882
-0.0141747
-0.0131767
-0.0173905
-0.00747296
-0.0146356
0.0145888
-0.0133443
0.0683774
-0.0513634
0.212005
-0.250672
-4.81677e-05
-0.0310757
-0.0302476
0.0658927
0.21042
0.348397
0.473657
0.595411
0.711265
0.80151
0.83736
0.793171
0.657355
0.437023
0.157573
-0.143209
-0.422847
-0.643605
-0.780079
-0.825022
-0.789823
-0.700013
-0.584406
-0.462797
-0.337632
-0.1997
-0.0551699
0.0409888
0.0418218
0.0108199
-0.00516896
-0.0380713
-0.0133543
0.105213
0.249345
0.375022
0.486874
0.594216
0.69256
0.76331
0.782335
0.729777
0.5981
0.394928
0.142347
-0.127981
-0.38073
-0.584289
-0.716587
-0.769888
-0.751538
-0.681259
-0.583185
-0.475996
-0.364239
-0.238615
-0.09449
0.0240947
0.0488161
0.0159283
-0.0119445
-0.041236
0.0111793
0.145788
0.283042
0.394929
0.493633
0.586729
0.66828
0.721465
0.726492
0.668231
0.542121
0.355793
0.1283
-0.113921
-0.341559
-0.528235
-0.654926
-0.713917
-0.709587
-0.656916
-0.575667
-0.482735
-0.384129
-0.2723
-0.135062
-0.000441883
0.0519773
0.022697
-0.0203007
-0.0388402
0.0420742
0.185219
0.311246
0.409368
0.495647
0.575355
0.641914
0.680431
0.674697
0.613106
0.493091
0.321973
0.116242
-0.101838
-0.307693
-0.47912
-0.599678
-0.661984
-0.668436
-0.630475
-0.564255
-0.484729
-0.398552
-0.300491
-0.17449
-0.0313391
0.0495777
0.0310491
-0.029877
-0.0294153
0.0787059
0.222957
0.334743
0.419366
0.493655
0.560609
0.613598
0.639626
0.62547
0.562226
0.44869
0.291699
0.105511
-0.0910694
-0.277361
-0.434627
-0.548668
-0.61261
-0.627504
-0.602074
-0.549465
-0.482714
-0.408534
-0.323974
-0.21222
-0.0679706
0.0401516
0.0406236
-0.0397965
-0.0116711
0.11961
0.257698
0.353526
0.425229
0.487949
0.542837
0.583605
0.599017
0.578331
0.514726
0.407923
0.264184
0.0958104
-0.0813194
-0.24978
-0.39376
-0.501032
-0.565319
-0.586759
-0.571986
-0.531642
-0.476984
-0.414381
-0.342744
-0.246951
-0.108871
0.0224096
0.0505437
-0.0486755
0.0151777
0.162718
0.288079
0.367481
0.427078
0.478745
0.522427
0.552386
0.558947
0.53339
0.470475
0.370524
0.239181
0.0870398
-0.0724885
-0.224701
-0.356256
-0.456642
-0.52022
-0.546543
-0.540662
-0.511173
-0.467753
-0.416216
-0.356687
-0.277323
-0.151973
-0.00443366
0.059426
-0.0546759
0.0511742
0.205648
0.313127
0.376728
0.425118
0.466343
0.499815
0.520393
0.519735
0.490744
0.429359
0.336263
0.216476
0.0791138
-0.0644915
-0.20191
-0.321881
-0.415381
-0.477411
-0.507177
-0.508553
-0.488493
-0.455319
-0.414241
-0.365924
-0.302362
-0.194894
-0.0404216
0.0654328
-0.055574
0.0955056
0.245935
0.332319
0.381553
0.419598
0.451087
0.475438
0.488028
0.481624
0.45042
0.391215
0.304886
0.19585
0.0719467
-0.0572435
-0.18119
-0.290385
-0.377087
-0.436916
-0.468903
-0.476062
-0.46404
-0.440027
-0.408707
-0.370741
-0.321547
-0.235173
-0.0847426
0.0663403
-0.0488706
0.146468
0.281268
0.345575
0.38232
0.410788
0.433351
0.449722
0.455644
0.444805
0.412408
0.355873
0.276156
0.177104
0.0654617
-0.0506682
-0.162342
-0.261529
-0.341589
-0.398726
-0.431911
-0.44354
-0.438236
-0.422248
-0.399881
-0.371501
-0.334797
-0.2705
-0.135694
0.0596485
-0.0319414
0.201511
0.309713
0.353205
0.37941
0.398975
0.413529
0.423069
0.423552
0.409428
0.376681
0.323172
0.249857
0.160063
0.0595912
-0.0446987
-0.145191
-0.235098
-0.308726
-0.362815
-0.396352
-0.411298
-0.411483
-0.402376
-0.388049
-0.368587
-0.342425
-0.29894
-0.190728
0.0427317
-0.00221572
0.257373
0.329906
0.355828
0.373182
0.384471
0.392025
0.395852
0.392021
0.375607
0.343196
0.292955
0.225797
0.144569
0.054276
-0.0392764
-0.129581
-0.2109
-0.278342
-0.32914
-0.362338
-0.379604
-0.384155
-0.380811
-0.373522
-0.362353
-0.345047
-0.319132
-0.246584
0.0130179
0.0426319
0.310289
0.341195
0.354256
0.363943
0.367614
0.369241
0.368413
0.361278
0.343424
0.311898
0.265073
0.203796
0.130485
0.0494635
-0.0343495
-0.115373
-0.188756
-0.25029
-0.297645
-0.329954
-0.348686
-0.35659
-0.357956
-0.356635
-0.353107
-0.343475
-0.330422
-0.299498
-0.0318202
0.104496
0.356261
0.343704
0.349363
0.351946
0.348773
0.345565
0.341055
0.331512
0.312935
0.282723
0.239386
0.183695
0.117686
0.0451073
-0.0298722
-0.102444
-0.168507
-0.224427
-0.268266
-0.299253
-0.318731
-0.329092
-0.334198
-0.337757
-0.3411
-0.338583
-0.332935
-0.345472
-0.093679
0.18468
0.391365
0.338321
0.34196
0.337404
0.328345
0.321362
0.314044
0.302879
0.284172
0.255599
0.215759
0.165346
0.10606
0.041166
-0.0258038
-0.0906845
-0.150007
-0.20062
-0.240933
-0.270269
-0.289895
-0.301927
-0.309898
-0.317282
-0.326542
-0.331179
-0.327558
-0.380581
-0.173862
0.283772
0.412053
0.326603
0.332687
0.320512
0.306749
0.296963
0.287613
0.275501
0.257147
0.230449
0.194064
0.148615
0.0955086
0.0376027
-0.0221082
-0.0799943
-0.133121
-0.178742
-0.21557
-0.243014
-0.262301
-0.275325
-0.285388
-0.295627
-0.309628
-0.321903
-0.315845
-0.401277
-0.272957
0.401575
0.415437
0.310617
0.32194
0.30149
0.284409
0.272657
0.261955
0.249472
0.231856
0.207196
0.174182
0.133382
0.0859419
0.0343846
-0.0187532
-0.0702849
-0.11773
-0.158675
-0.192099
-0.217484
-0.236044
-0.249481
-0.260955
-0.273216
-0.290574
-0.311148
-0.299862
-0.40467
-0.39077
0.537105
0.399514
0.292729
0.309834
0.280611
0.261741
0.248694
0.237239
0.224863
0.20828
0.185757
0.155999
0.119533
0.077279
0.0314822
-0.0157099
-0.0614762
-0.103721
-0.140305
-0.170439
-0.193662
-0.211193
-0.224561
-0.236848
-0.250463
-0.269655
-0.299028
-0.281974
-0.388756
-0.526312
0.688635
0.363309
0.275372
0.296219
0.258236
0.239128
0.22528
0.213599