/*--------------------------------*- C++ -*----------------------------------*\
| =========                 |                                                 |
| \\      /  F ield         | OpenFOAM: The Open Source CFD Toolbox           |
|  \\    /   O peration     | Version:  2.4.0                                 |
|   \\  /    A nd           | Web:      www.OpenFOAM.org                      |
|    \\/     M anipulation  |                                                 |
\*---------------------------------------------------------------------------*/
FoamFile
{
    version     2.0;
    format      ascii;
    class       surfaceScalarField;
    location    "0.01";
    object      phi;
}
// * * * * * * * * * * * * * * * * * * * * * * * * * * * * * * * * * * * * * //

dimensions      [0 3 -1 0 0 0 0];

internalField   nonuniform List<scalar> 
14230
(
2.11583e-16
-1.33044e-16
-2.42864e-16
4.54429e-16
-3.98911e-15
3.74631e-15
-9.7885e-15
5.79943e-15
-1.2754e-14
2.96556e-15
-5.78302e-15
-6.97089e-15
2.03165e-14
-2.60994e-14
7.66453e-14
-5.63288e-14
1.73627e-13
-9.69818e-14
3.15206e-13
-1.41578e-13
4.93076e-13
-1.7787e-13
6.84878e-13
-1.91802e-13
8.5826e-13
-1.73382e-13
9.79415e-13
-1.21155e-13
1.02295e-12
-4.35316e-14
9.79429e-13
4.35171e-14
8.58271e-13
1.21158e-13
6.84857e-13
1.73413e-13
4.93e-13
1.91857e-13
3.1507e-13
1.7793e-13
1.73454e-13
1.41616e-13
7.64733e-14
9.69805e-14
2.01806e-14
5.62924e-14
-5.86702e-15
2.60473e-14
-1.27912e-14
6.92401e-15
-9.79567e-15
-2.99567e-15
-3.98423e-15
-5.81151e-15
-2.39391e-16
-3.74486e-15
2.12743e-16
-4.52136e-16
1.27598e-16
8.51493e-17
1.48667e-16
-1.15073e-17
-2.71013e-15
3.31322e-15
-1.21103e-14
1.31466e-14
-2.32453e-14
1.69345e-14
-2.09681e-14
6.8845e-16
1.7533e-14
-4.54719e-14
1.18993e-13
-1.2756e-13
3.11452e-13
-2.48788e-13
6.16377e-13
-4.01907e-13
1.03501e-12
-5.60209e-13
1.53724e-12
-6.801e-13
2.06077e-12
-7.15337e-13
2.52295e-12
-6.35559e-13
2.84111e-12
-4.39317e-13
2.95461e-12
-1.57028e-13
2.84117e-12
1.56953e-13
2.52302e-12
4.39311e-13
2.06077e-12
6.35663e-13
1.53709e-12
7.15538e-13
1.03469e-12
6.80328e-13
6.15934e-13
5.60368e-13
3.10982e-13
4.01932e-13
1.18594e-13
2.4868e-13
1.7262e-14
1.27379e-13
-2.11096e-14
4.52954e-14
-2.32946e-14
-8.1086e-16
-1.21164e-14
-1.69897e-14
-2.71194e-15
-1.31493e-14
1.48005e-16
-3.31208e-15
7.86003e-18
2.67749e-16
-4.85541e-16
8.17918e-16
-7.27696e-15
1.01046e-14
-2.31624e-14
2.90321e-14
-3.53063e-14
2.90785e-14
-1.46458e-14
-1.9972e-14
7.64337e-14
-1.36551e-13
2.78542e-13
-3.29668e-13
6.30709e-13
-6.00954e-13
1.15682e-12
-9.28022e-13
1.84709e-12
-1.25048e-12
2.64641e-12
-1.47942e-12
3.45761e-12
-1.52654e-12
4.16014e-12
-1.33809e-12
4.63784e-12
-9.17024e-13
4.80724e-12
-3.26427e-13
4.63797e-12
3.26225e-13
4.1603e-12
9.16976e-13
3.45769e-12
1.33828e-12
2.64627e-12
1.52695e-12
1.84668e-12
1.47992e-12
1.15619e-12
1.25086e-12
6.29987e-13
9.28137e-13
2.77884e-13
6.00783e-13
7.5947e-14
3.29316e-13
-1.49309e-14
1.36173e-13
-3.54284e-14
1.96865e-14
-2.31901e-14
-2.92281e-14
-7.27537e-15
-2.90641e-14
-4.85542e-16
-1.01019e-14
-8.18133e-16
3.40458e-16
-2.12912e-15
3.09325e-15
-1.44646e-14
2.24401e-14
-3.54773e-14
5.00449e-14
-4.00671e-14
3.36685e-14
1.52514e-14
-7.52904e-14
1.80415e-13
-3.01715e-13
5.0626e-13
-6.55513e-13
1.03701e-12
-1.1317e-12
1.79165e-12
-1.68266e-12
2.74378e-12
-2.20261e-12
3.81284e-12
-2.54848e-12
4.87255e-12
-2.58624e-12
5.77487e-12
-2.24041e-12
6.38176e-12
-1.52392e-12
6.59584e-12
-5.40504e-13
6.38198e-12
5.40089e-13
5.77518e-12
1.52377e-12
4.87278e-12
2.24068e-12
3.81281e-12
2.58692e-12
2.74339e-12
2.54934e-12
1.79092e-12
2.20332e-12
1.0361e-12
1.68296e-12
5.05366e-13
1.13151e-12
1.79703e-13
6.54978e-13
1.4794e-14
3.01082e-13
-4.02924e-14
7.47728e-14
-3.55476e-14
-3.3973e-14
-1.44694e-14
-5.01423e-14
-2.128e-15
-2.24433e-14
-3.08932e-15
1.43198e-16
-5.31321e-15
7.75135e-15
-2.41459e-14
4.12728e-14
-4.63232e-14
7.22224e-14
-3.17639e-14
1.91092e-14
7.61599e-14
-1.83214e-13
3.36748e-13
-5.62303e-13
8.07188e-13
-1.12595e-12
1.53124e-12
-1.85576e-12
2.51709e-12
-2.66851e-12
3.71851e-12
-3.40404e-12
5.0308e-12
-3.86077e-12
6.30439e-12
-3.85983e-12
7.37239e-12
-3.3084e-12
8.08365e-12
-2.23518e-12
8.33335e-12
-7.90202e-13
8.08396e-12
7.89469e-13
7.37288e-12
2.23486e-12
6.30483e-12
3.30873e-12
5.03094e-12
3.8608e-12
3.71821e-12
3.86207e-12
2.51635e-12
3.40519e-12
1.53021e-12
2.6691e-12
8.06095e-13
1.85563e-12
3.35814e-13
1.12526e-12
7.55102e-14
5.61386e-13
-3.21198e-14
1.82403e-13
-4.64581e-14
-1.96348e-14
-2.41686e-14
-7.24318e-14
-5.31268e-15
-4.12992e-14
-7.7449e-15
-6.5709e-16
-1.04981e-14
1.57631e-14
-3.55305e-14
6.63053e-14
-5.20335e-14
8.87255e-14
-4.07755e-15
-2.88466e-14
1.75526e-13
-3.62817e-13
5.52247e-13
-9.39025e-13
1.18564e-12
-1.75935e-12
2.1138e-12
-2.78392e-12
3.32972e-12
-3.88442e-12
4.76601e-12
-4.84032e-12
6.29627e-12
-5.39103e-12
7.75322e-12
-5.31678e-12
8.9581e-12
-4.51328e-12
9.75333e-12
-3.03041e-12
1.00313e-11
-1.06816e-12
9.75376e-12
1.067e-12
8.9588e-12
3.02982e-12
7.7539e-12
4.51363e-12
6.29665e-12
5.31806e-12
4.76588e-12
5.39283e-12
3.32905e-12
4.84203e-12
2.11272e-12
3.88543e-12
1.1844e-12
2.78395e-12
5.51105e-13
1.75855e-12
1.74671e-13
9.37819e-13
-4.5905e-15
3.61664e-13
-5.22588e-14
2.80335e-14
-3.55867e-14
-8.91039e-14
-1.05022e-14
-6.63837e-14
-1.57595e-14
-2.48751e-15
-1.7906e-14
2.78687e-14
-4.6956e-14
9.53554e-14
-4.78975e-14
8.9667e-14
4.98918e-14
-1.26636e-13
3.20778e-13
-6.33704e-13
8.33224e-13
-1.45147e-12
1.6452e-12
-2.57133e-12
2.7846e-12
-3.92331e-12
4.22632e-12
-5.32615e-12
5.88192e-12
-6.49592e-12
7.60642e-12
-7.11553e-12
9.2199e-12
-6.93026e-12
1.05374e-11
-5.83078e-12
1.13998e-11
-3.89281e-12
1.17e-11
-1.36841e-12
1.14003e-11
1.36669e-12
1.05383e-11
3.89185e-12
9.22087e-12
5.83107e-12
7.6071e-12
6.93183e-12
5.88204e-12
7.11789e-12
4.2258e-12
6.49827e-12
2.78353e-12
5.32769e-12
1.64385e-12
3.92363e-12
8.31896e-13
2.5705e-12
3.19713e-13
1.45e-12
4.9199e-14
6.32178e-13
-4.82409e-14
1.25473e-13
-4.70653e-14
-9.02795e-14
-1.79218e-14
-9.55271e-14
-2.78788e-14
-5.80251e-15
-2.73207e-14
4.4218e-14
-5.57128e-14
1.23748e-13
-2.81727e-14
6.21271e-14
1.37533e-13
-2.92342e-13
5.19271e-13
-1.01544e-12
1.18549e-12
-2.11769e-12
2.18879e-12
-3.57463e-12
3.54319e-12
-5.27771e-12
5.20393e-12
-6.98689e-12
7.0627e-12
-8.35469e-12
8.95938e-12
-9.0122e-12
1.07059e-11
-8.67677e-12
1.21155e-11
-7.24041e-12
1.30313e-11
-4.80855e-12
1.33489e-11
-1.68606e-12
1.30319e-11
1.68365e-12
1.21167e-11
4.80711e-12
1.07072e-11
7.24058e-12
8.9604e-12
8.67861e-12
7.06314e-12
9.01516e-12
5.20363e-12
8.35778e-12
3.54222e-12
6.9891e-12
2.1874e-12
5.27845e-12
1.18401e-12
3.57389e-12
5.18001e-13
2.11601e-12
1.36643e-13
1.01354e-12
-2.8662e-14
2.90778e-13
-5.58987e-14
-6.30428e-14
-2.73593e-14
-1.24067e-13
-4.42594e-14
-1.09787e-14
-3.78575e-14
6.3932e-14
-5.79098e-14
1.438e-13
1.38206e-14
-9.60326e-15
2.66553e-13
-5.45073e-13
7.78162e-13
-1.52705e-12
1.61432e-12
-2.95385e-12
2.81877e-12
-4.77907e-12
4.38891e-12
-6.84785e-12
6.25992e-12
-8.8579e-12
8.30559e-12
-1.04004e-11
1.03541e-11
-1.10607e-11
1.22131e-11
-1.05358e-11
1.36976e-11
-8.72491e-12
1.46552e-11
-5.76622e-12
1.49863e-11
-2.01715e-12
1.46561e-11
2.01392e-12
1.3699e-11
5.76418e-12
1.22147e-11
8.72486e-12
1.03555e-11
1.05378e-11
8.30638e-12
1.10643e-11
6.2599e-12
1.04043e-11
4.38809e-12
8.86091e-12
2.81739e-12
6.84915e-12
1.61273e-12
4.77855e-12
7.76701e-13
2.95204e-12
2.65454e-13
1.52478e-12
1.31594e-14
5.43072e-13
-5.81993e-14
8.31591e-15
-3.7934e-14
-1.44332e-13
-6.40303e-14
-1.81631e-14
-4.77264e-14
8.46196e-14
-4.84023e-14
1.44476e-13
8.55612e-14
-1.43567e-13
4.44819e-13
-9.04331e-13
1.10432e-12
-2.18656e-12
2.12445e-12
-3.97398e-12
3.53699e-12
-6.19161e-12
5.32096e-12
-8.63183e-12
7.39205e-12
-1.0929e-11
9.60852e-12
-1.26168e-11
1.17902e-11
-1.32424e-11
1.37437e-11
-1.24893e-11
1.52885e-11
-1.02697e-11
1.62787e-11
-6.75641e-12
1.66199e-11
-2.35843e-12
1.62796e-11
2.35424e-12
1.52902e-11
6.75365e-12
1.37457e-11
1.02693e-11
1.1792e-11
1.24915e-11
9.60972e-12
1.32465e-11
7.39237e-12
1.26216e-11
5.32038e-12
1.09329e-11
3.53569e-12
8.63384e-12
2.1228e-12
6.19145e-12
1.1027e-12
3.97214e-12
4.43508e-13
2.18397e-12
8.47053e-14
9.01876e-13
-4.88245e-14
1.41846e-13
-4.78608e-14
-1.45295e-13
-8.48093e-14
-2.70818e-14
-5.40109e-14
1.01893e-13
-2.07877e-14
1.11253e-13
1.95159e-13
-3.59513e-13
6.80226e-13
-1.3894e-12
1.50429e-12
-3.01062e-12
2.72011e-12
-5.1898e-12
4.34493e-12
-7.81643e-12
6.33857e-12
-1.06255e-11
8.59847e-12
-1.31889e-11
1.09701e-11
-1.49884e-11
1.32679e-11
-1.55402e-11
1.53003e-11
-1.45217e-11
1.6893e-11
-1.18624e-11
1.79079e-11
-7.7713e-12
1.82567e-11
-2.70724e-12
1.7909e-11
2.70195e-12
1.68949e-11
7.7677e-12
1.53026e-11
1.18616e-11
1.32701e-11
1.4524e-11
1.09717e-11
1.55449e-11
8.5992e-12
1.49941e-11
6.33828e-12
1.31938e-11
4.34378e-12
1.06283e-11
2.71845e-12
7.81678e-12
1.50252e-12
5.18806e-12
6.78709e-13
3.00779e-12
1.9409e-13
1.38649e-12
-2.13724e-14
3.57309e-13
-5.42274e-14
-1.1244e-13
-1.02218e-13
-3.68188e-14
-5.24827e-14
1.08932e-13
3.25263e-14
2.6244e-14
3.51167e-13
-6.78154e-13
9.80577e-13
-2.01881e-12
1.98421e-12
-4.01425e-12
3.40503e-12
-6.61062e-12
5.24374e-12
-9.65514e-12
7.44099e-12
-1.28227e-11
9.87778e-12
-1.56257e-11
1.23894e-11
-1.75001e-11
1.47879e-11
-1.79386e-11
1.68855e-11
-1.66193e-11
1.85156e-11
-1.34926e-11
1.95487e-11
-8.80442e-12
1.99029e-11
-3.06138e-12
1.955e-11
3.05487e-12
1.85178e-11
8.79984e-12
1.68882e-11
1.34913e-11
1.47906e-11
1.66217e-11
1.23915e-11
1.79439e-11
9.87895e-12
1.75067e-11
7.44105e-12
1.56317e-11
5.2428e-12
1.28266e-11
3.40341e-12
9.65617e-12
1.98235e-12
6.60912e-12
9.78869e-13
4.01127e-12
3.49876e-13
2.01549e-12
3.17507e-14
6.75434e-13
-5.28094e-14
-2.78802e-14
-1.09445e-13
-4.55822e-14
-3.74747e-14
9.6151e-14
1.20186e-13
-1.31416e-13
5.62398e-13
-1.12037e-12
1.35349e-12
-2.8099e-12
2.54984e-12
-5.2106e-12
4.18251e-12
-8.24329e-12
6.23436e-12
-1.1707e-11
8.62761e-12
-1.5216e-11
1.1229e-11
-1.8227e-11
1.38662e-11
-2.01373e-11
1.63513e-11
-2.04236e-11
1.8502e-11
-1.877e-11
2.01608e-11
-1.51513e-11
2.12067e-11
-9.85032e-12
2.15643e-11
-3.41904e-12
2.1208e-11
3.41119e-12
2.01632e-11
9.84465e-12
1.85051e-11
1.51494e-11
1.63544e-11
1.87724e-11
1.38688e-11
2.04295e-11
1.12306e-11
2.01449e-11
8.62808e-12
1.82343e-11
6.2337e-12
1.5221e-11
4.181e-12
1.17089e-11
2.54792e-12
8.2422e-12
1.35162e-12
5.20757e-12
5.60882e-13
2.80622e-12
1.19194e-13
1.11712e-12
-3.79425e-14
1.29256e-13
-9.6912e-14
-5.04756e-14
-1.8274e-15
5.10104e-14
2.51697e-13
-3.84941e-13
8.37742e-13
-1.70641e-12
1.80634e-12
-3.77851e-12
3.2065e-12
-6.61076e-12
5.05544e-12
-1.00922e-11
7.31758e-12
-1.39691e-11
9.89801e-12
-1.77964e-11
1.26514e-11
-2.09804e-11
1.54006e-11
-2.28866e-11
1.79594e-11
-2.29825e-11
2.01529e-11
-2.09635e-11
2.18325e-11
-1.68309e-11
2.28866e-11
-1.09045e-11
2.32463e-11
-3.77871e-12
2.28881e-11
3.76939e-12
2.18352e-11
1.08976e-11
2.01563e-11
1.68282e-11
1.7963e-11
2.09656e-11
1.54037e-11
2.29888e-11
1.26536e-11
2.28951e-11
9.89894e-12
2.09889e-11
7.31725e-12
1.78027e-11
5.0541e-12
1.3972e-11
3.20459e-12
1.00917e-11
1.80433e-12
6.60783e-12
8.36006e-13
3.77455e-12
2.50469e-13
1.70266e-12
-2.46817e-15
3.82194e-13
-5.20838e-14
-4.72964e-14
6.30805e-14
-4.19858e-14
4.37191e-13
-7.59051e-13
1.18601e-12
-2.45523e-12
2.34619e-12
-4.93869e-12
3.95914e-12
-8.2237e-12
6.02639e-12
-1.21595e-11
8.4941e-12
-1.64368e-11
1.12519e-11
-2.05542e-11
1.41449e-11
-2.38734e-11
1.69931e-11
-2.57348e-11
1.96141e-11
-2.56034e-11
2.18408e-11
-2.31902e-11
2.35348e-11
-1.85249e-11
2.45933e-11
-1.1963e-11
2.49537e-11
-4.13913e-12
2.45949e-11
4.12823e-12
2.35377e-11
1.19548e-11
2.18446e-11
1.85213e-11
1.96181e-11
2.31921e-11
1.69967e-11
2.56101e-11
1.41476e-11
2.57443e-11
1.12534e-11
2.38831e-11
8.49416e-12
2.05618e-11
6.02529e-12
1.64409e-11
3.95728e-12
1.21597e-11
2.34408e-12
8.22103e-12
1.18407e-12
4.93455e-12
4.35715e-13
2.45102e-12
6.22357e-14
7.55674e-13
4.05346e-14
-3.03827e-14
1.67216e-13
-2.01091e-13
6.87168e-13
-1.279e-12
1.61583e-12
-3.38389e-12
2.97978e-12
-6.30264e-12
4.81226e-12
-1.00562e-11
7.09765e-12
-1.44449e-11
9.76461e-12
-1.91038e-11
1.26894e-11
-2.3479e-11
1.57094e-11
-2.68935e-11
1.86444e-11
-2.86698e-11
2.1317e-11
-2.8276e-11
2.35688e-11
-2.5442e-11
2.52713e-11
-2.02274e-11
2.63309e-11
-1.30226e-11
2.6691e-11
-4.49922e-12
2.63326e-11
4.48663e-12
2.52745e-11
1.30129e-11
2.35729e-11
2.02229e-11
2.13214e-11
2.54436e-11
1.86486e-11
2.82829e-11
1.57127e-11
2.86801e-11
1.26913e-11
2.69045e-11
9.76512e-12
2.34881e-11
7.09685e-12
1.91092e-11
4.81052e-12
1.4446e-11
2.97762e-12
1.00539e-11
1.61371e-12
6.29846e-12
6.8544e-13
3.37928e-12
1.66139e-13
1.27497e-12
1.99199e-13
7.47459e-15
3.21698e-13
-4.46911e-13
1.01224e-12
-1.96955e-12
2.13552e-12
-4.50716e-12
3.7135e-12
-7.88063e-12
5.77003e-12
-1.21127e-11
8.27127e-12
-1.69461e-11
1.11298e-11
-2.19623e-11
1.42105e-11
-2.65596e-11
1.73455e-11
-3.00285e-11
2.03557e-11
-3.168e-11
2.30701e-11
-3.09903e-11
2.53396e-11
-2.77116e-11
2.70457e-11
-2.19336e-11
2.81035e-11
-1.40804e-11
2.84624e-11
-4.85805e-12
2.81053e-11
4.84369e-12
2.7049e-11
1.40692e-11
2.5344e-11
2.1928e-11
2.30749e-11
2.77126e-11
2.03604e-11
3.09975e-11
1.73494e-11
3.16912e-11
1.4213e-11
3.00409e-11
1.11308e-11
2.65702e-11
8.27082e-12
2.19692e-11
5.76847e-12
1.69484e-11
3.71134e-12
1.21111e-11
2.13325e-12
7.87654e-12
1.01027e-12
4.50227e-12
3.20366e-13
1.96488e-12
4.44526e-13
7.50395e-14
5.38534e-13
-8.01822e-13
1.42291e-12
-2.85393e-12
2.75309e-12
-5.83734e-12
4.5534e-12
-9.68094e-12
6.83624e-12
-1.43956e-11
9.54913e-12
-1.9659e-11
1.25905e-11
-2.50037e-11
1.58157e-11
-2.97848e-11
1.90538e-11
-3.32666e-11
2.21283e-11
-3.47545e-11
2.48755e-11
-3.37375e-11
2.7156e-11
-2.99921e-11
2.88612e-11
-2.36388e-11
2.99147e-11
-1.51339e-11
3.02715e-11
-5.21483e-12
2.99166e-11
5.1986e-12
2.88647e-11
1.51211e-11
2.71606e-11
2.36321e-11
2.48807e-11
2.99926e-11
2.21335e-11
3.37447e-11
1.90582e-11
3.47664e-11
1.58188e-11
3.32803e-11
1.2592e-11
2.9797e-11
9.5491e-12
2.50121e-11
6.83492e-12
1.96626e-11
4.55128e-12
1.43947e-11
2.75072e-12
9.67711e-12
1.42071e-12
5.83227e-12
5.36932e-13
2.84866e-12
7.98902e-13
1.82557e-13
8.30321e-13
-1.28923e-12
1.92937e-12
-3.95297e-12
3.47617e-12
-7.38414e-12
5.50516e-12
-1.17099e-11
8.01435e-12
-1.69047e-11
1.0933e-11
-2.25777e-11
1.41475e-11
-2.82181e-11
1.75056e-11
-3.3143e-11
2.08351e-11
-3.65961e-11
2.39636e-11
-3.78829e-11
2.67352e-11
-3.65091e-11
2.90206e-11
-3.22775e-11
3.0721e-11
-2.53392e-11
3.1768e-11
-1.61809e-11
3.2122e-11
-5.56882e-12
3.17699e-11
5.55066e-12
3.07246e-11
1.61664e-11
2.90256e-11
2.53311e-11
2.67408e-11
3.22773e-11
2.39692e-11
3.65164e-11
2.08401e-11
3.78956e-11
1.75093e-11
3.6611e-11
1.41496e-11
3.31568e-11
1.09334e-11
2.82282e-11
8.01333e-12
2.25827e-11
5.50316e-12
1.69049e-11
3.47375e-12
1.17065e-11
1.92696e-12
7.37906e-12
8.28443e-13
3.94718e-12
1.28575e-12
3.41592e-13
1.20993e-12
-1.93276e-12
2.54134e-12
-5.28439e-12
4.31207e-12
-9.15488e-12
6.57413e-12
-1.3972e-11
9.30755e-12
-1.96382e-11
1.24246e-11
-2.56947e-11
1.58017e-11
-3.15952e-11
1.92811e-11
-3.66224e-11
2.26905e-11
-4.00056e-11
2.58631e-11
-4.10555e-11
2.86515e-11
-3.92975e-11
3.09362e-11
-3.45622e-11
3.2628e-11
-2.7031e-11
3.36665e-11
-1.72194e-11
3.40171e-11
-5.9194e-12
3.36685e-11
5.89925e-12
3.26318e-11
1.72031e-11
3.09414e-11
2.70216e-11
2.86575e-11
3.45612e-11
2.58692e-11
3.93047e-11
2.26961e-11
4.10687e-11
1.92854e-11
4.00217e-11
1.58044e-11
3.66378e-11
1.24255e-11
3.1607e-11
9.3069e-12
2.57013e-11
6.57231e-12
1.96395e-11
4.30965e-12
1.39692e-11
2.53877e-12
9.14993e-12
1.20778e-12
5.27818e-12
1.92873e-12
5.64803e-13
1.69017e-12
-2.75541e-12
3.26803e-12
-6.86225e-12
5.26774e-12
-1.11546e-11
7.76532e-12
-1.64696e-11
1.07188e-11
-2.25916e-11
1.40255e-11
-2.90015e-11
1.75542e-11
-3.5124e-11
2.1143e-11
-4.02111e-11
2.46214e-11
-4.3484e-11
2.78286e-11
-4.42627e-11
3.06264e-11
-4.20953e-11
3.29052e-11
-3.68409e-11
3.45851e-11
-2.87109e-11
3.56131e-11
-1.82474e-11
3.59597e-11
-6.26597e-12
3.56152e-11
6.24378e-12
3.4589e-11
1.82293e-11
3.29105e-11
2.87e-11
3.06327e-11
3.6839e-11
2.78351e-11
4.21022e-11
2.46274e-11
4.42764e-11
2.11479e-11
4.35012e-11
1.75576e-11
4.02281e-11
1.4027e-11
3.51376e-11
1.07185e-11
2.90098e-11
7.76374e-12
2.25943e-11
5.26537e-12
1.64676e-11
3.26535e-12
1.115e-11
1.68777e-12
6.85576e-12
2.75084e-12
8.65657e-13
2.28358e-12
-3.77871e-12
4.11809e-12
-8.69676e-12
6.34983e-12
-1.33863e-11
9.08339e-12
-1.92031e-11
1.22508e-11
-2.5759e-11
1.57375e-11
-3.24882e-11
1.94063e-11
-3.87928e-11
2.30925e-11
-4.38973e-11
2.6629e-11
-4.70205e-11
2.98618e-11
-4.74956e-11
3.26621e-11
-4.48956e-11
3.493e-11
-3.91088e-11
3.65947e-11
-3.03756e-11
3.76106e-11
-1.92633e-11
3.79526e-11
-6.60798e-12
3.76127e-11
6.58371e-12
3.65987e-11
1.92433e-11
3.49355e-11
3.03632e-11
3.26686e-11
3.91059e-11
2.98687e-11
4.49021e-11
2.66355e-11
4.75096e-11
2.3098e-11
4.70387e-11
1.94102e-11
4.39159e-11
1.57396e-11
3.88082e-11
1.2251e-11
3.24983e-11
9.08211e-12
2.57632e-11
6.34757e-12
1.92021e-11
4.11534e-12
1.33822e-11
2.28094e-12
8.69016e-12
3.77366e-12
1.25812e-12
3.00212e-12
-5.02206e-12
5.09961e-12
-1.07943e-11
7.56469e-12
-1.58514e-11
1.05327e-11
-2.21711e-11
1.39061e-11
-2.91324e-11
1.75621e-11
-3.61442e-11
2.1359e-11
-4.25897e-11
2.51308e-11
-4.76691e-11
2.87147e-11
-5.06044e-11
3.19644e-11
-5.07453e-11
3.47605e-11
-4.76916e-11
3.70128e-11
-4.13611e-11
3.86594e-11
-3.20223e-11
3.96615e-11
-2.02654e-11
3.99985e-11
-6.94489e-12
3.96636e-11
6.91853e-12
3.86634e-11
2.02435e-11
3.70184e-11
3.20083e-11
3.47672e-11
4.13571e-11
3.19717e-11
4.76976e-11
2.87217e-11
5.07596e-11
2.51369e-11
5.06235e-11
2.13636e-11
4.76892e-11
1.75648e-11
4.2607e-11
1.39068e-11
3.61563e-11
1.05318e-11
2.91382e-11
7.56261e-12
2.21713e-11
5.09686e-12
1.58479e-11
2.9993e-12
1.07877e-11
5.0166e-12
1.75635e-12
3.85709e-12
-6.50211e-12
6.22019e-12
-1.31574e-11
8.91839e-12
-1.85496e-11
1.21172e-11
-2.53699e-11
1.56871e-11
-3.27023e-11
1.95011e-11
-3.99582e-11
2.34138e-11
-4.65024e-11
2.72593e-11
-5.15145e-11
3.08802e-11
-5.42253e-11
3.41383e-11
-5.40034e-11
3.69236e-11
-5.0477e-11
3.91558e-11
-4.35933e-11
4.07814e-11
-3.36479e-11
4.17681e-11
-2.12522e-11
4.20994e-11
-7.2762e-12
4.17702e-11
7.24774e-12
4.07855e-11
2.12282e-11
3.91615e-11
3.36322e-11
3.69305e-11
4.35881e-11
3.41458e-11
5.04824e-11
3.08876e-11
5.40178e-11
2.72659e-11
5.42453e-11
2.3419e-11
5.15361e-11
1.95044e-11
4.65216e-11
1.56884e-11
3.99723e-11
1.21167e-11
3.271e-11
8.91656e-12
2.53714e-11
6.2175e-12
1.8547e-11
3.85413e-12
1.31511e-11
6.49635e-12
2.37438e-12
4.85902e-12
-8.23235e-12
7.48702e-12
-1.57854e-11
1.04167e-11
-2.14793e-11
1.38407e-11
-2.87938e-11
1.75963e-11
-3.64579e-11
2.15562e-11
-4.39181e-11
2.55721e-11
-5.05183e-11
2.94793e-11
-5.54217e-11
3.31269e-11
-5.78729e-11
3.6385e-11
-5.72615e-11
3.91534e-11
-5.32454e-11
4.13611e-11
-4.5801e-11
4.29628e-11
-3.52496e-11
4.39325e-11
-2.22219e-11
4.42578e-11
-7.60142e-12
4.39346e-11
7.57086e-12
4.29668e-11
2.2196e-11
4.13668e-11
3.52322e-11
3.91604e-11
4.57945e-11
3.63928e-11
5.325e-11
3.31347e-11
5.72758e-11
2.94865e-11
5.78935e-11
2.55779e-11
5.54446e-11
2.15601e-11
5.05394e-11
1.75982e-11
4.39342e-11
1.38407e-11
3.64675e-11
1.04152e-11
2.87969e-11
7.48446e-12
2.14778e-11
4.85598e-12
1.57796e-11
8.22642e-12
3.12591e-12
6.01766e-12
-1.02229e-11
8.90694e-12
-1.86746e-11
1.20652e-11
-2.46376e-11
1.57066e-11
-3.24352e-11
1.96358e-11
-4.03872e-11
2.37291e-11
-4.80113e-11
2.78353e-11
-5.46245e-11
3.17923e-11
-5.93788e-11
3.54564e-11
-6.1537e-11
3.87063e-11
-6.05115e-11
4.14516e-11
-5.59906e-11
4.36304e-11
-4.79798e-11
4.52055e-11
-3.68246e-11
4.61567e-11
-2.31732e-11
4.64753e-11
-7.92003e-12
4.61588e-11
7.88741e-12
4.52095e-11
2.31453e-11
4.36362e-11
3.68055e-11
4.14588e-11
4.79719e-11
3.87143e-11
5.59945e-11
3.54646e-11
6.05255e-11
3.18e-11
6.15582e-11
2.78417e-11
5.94029e-11
2.37337e-11
5.46474e-11
1.96384e-11
4.80295e-11
1.57071e-11
4.03988e-11
1.20641e-11
3.24399e-11
8.90457e-12
2.46373e-11
6.01461e-12
1.86695e-11
1.0217e-11
4.02406e-12
7.34201e-12
-1.24805e-11
1.04865e-11
-2.18191e-11
1.38691e-11
-2.80202e-11
1.77181e-11
-3.62842e-11
2.18081e-11
-4.44771e-11
2.60216e-11
-5.22248e-11
3.02049e-11
-5.88078e-11
3.41998e-11
-6.33737e-11
3.78703e-11
-6.52074e-11
4.11039e-11
-6.37451e-11
4.382e-11
-5.87067e-11
4.59657e-11
-5.01255e-11
4.75112e-11
-3.83702e-11
4.84425e-11
-2.41044e-11
4.8754e-11
-8.23156e-12
4.84445e-11
8.19689e-12
4.75152e-11
2.40746e-11
4.59714e-11
3.83493e-11
4.38272e-11
5.01161e-11
4.11121e-11
5.87096e-11
3.78787e-11
6.37589e-11
3.42079e-11
6.5229e-11
3.02119e-11
6.33989e-11
2.60269e-11
5.88323e-11
2.18113e-11
5.2245e-11
1.77192e-11
4.44909e-11
1.38684e-11
3.62907e-11
1.04844e-11
2.80213e-11
7.33901e-12
2.18149e-11
1.24747e-11
5.08129e-12
8.84041e-12
-1.50084e-11
1.2232e-11
-2.52108e-11
1.58333e-11
-3.16215e-11
1.98783e-11
-4.03292e-11
2.41153e-11
-4.87141e-11
2.84355e-11
-5.65451e-11
3.26824e-11
-6.30547e-11
3.67032e-11
-6.73945e-11
4.03699e-11
-6.88742e-11
4.35793e-11
-6.69545e-11
4.62601e-11
-6.13876e-11
4.83684e-11
-5.22337e-11
4.98817e-11
-3.98836e-11
5.07914e-11
-2.5014e-11
5.10953e-11
-8.5355e-12
5.07934e-11
8.49884e-12
4.98856e-11
2.49823e-11
4.83741e-11
3.98609e-11
4.62673e-11
5.22229e-11
4.35875e-11
6.13894e-11
4.03786e-11
6.69678e-11
3.67117e-11
6.8896e-11
3.26899e-11
6.74207e-11
2.84414e-11
6.30808e-11
2.41192e-11
5.65673e-11
1.988e-11
4.873e-11
1.58331e-11
4.03377e-11
1.22303e-11
3.16241e-11
8.83753e-12
2.52076e-11
1.50029e-11
6.30933e-12
1.05206e-11
-1.78066e-11
1.41497e-11
-2.88398e-11
1.79624e-11
-3.54342e-11
2.21901e-11
-4.45569e-11
2.65596e-11
-5.30836e-11
3.09725e-11
-6.09579e-11
3.52693e-11
-6.73515e-11
3.9304e-11
-7.14293e-11
4.29569e-11
-7.25271e-11
4.61339e-11
-7.01315e-11
4.87735e-11
-6.40271e-11
5.08401e-11
-5.43003e-11
5.23184e-11
-4.13619e-11
5.32049e-11
-2.59005e-11
5.35007e-11
-8.83134e-12
5.32068e-11
8.79275e-12
5.23222e-11
2.58669e-11
5.08457e-11
4.13375e-11
4.87806e-11
5.42879e-11
4.61422e-11
6.40278e-11
4.29658e-11
7.01442e-11
3.93128e-11
7.25489e-11
3.52773e-11
7.14563e-11
3.0979e-11
6.73791e-11
2.65641e-11
6.09821e-11
2.21924e-11
5.31018e-11
1.79627e-11
4.45675e-11
1.41483e-11
3.54384e-11
1.05179e-11
2.8838e-11
1.78017e-11
7.71916e-12
1.23899e-11
-2.08724e-11
1.62454e-11
-3.26953e-11
2.02606e-11
-3.94494e-11
2.4656e-11
-4.89523e-11
2.91433e-11
-5.75708e-11
3.36343e-11
-6.5449e-11
3.7967e-11
-7.16842e-11
4.20036e-11
-7.54659e-11
4.56325e-11
-7.6156e-11
4.87692e-11
-7.32682e-11
5.13615e-11
-6.66194e-11
5.33821e-11
-5.63208e-11
5.48226e-11
-4.28024e-11
5.56843e-11
-2.67623e-11
5.59716e-11
-9.11858e-12
5.56862e-11
9.07813e-12
5.48263e-11
2.67268e-11
5.33875e-11
4.27762e-11
5.13685e-11
5.63069e-11
4.87775e-11
6.66188e-11
4.56415e-11
7.32801e-11
4.20127e-11
7.61777e-11
3.79755e-11
7.54935e-11
3.36414e-11
7.17132e-11
2.91485e-11
6.54751e-11
2.46591e-11
5.75912e-11
2.02615e-11
4.89651e-11
1.62444e-11
3.94555e-11
1.23875e-11
3.26949e-11
2.08681e-11
9.32103e-12
1.44553e-11
-2.42001e-11
1.85248e-11
-3.67648e-11
2.2732e-11
-4.36566e-11
2.72789e-11
-5.34992e-11
3.18684e-11
-6.21603e-11
3.64226e-11
-7.00031e-11
4.07771e-11
-7.60387e-11
4.48033e-11
-7.94921e-11
4.83981e-11
-7.97508e-11
5.14864e-11
-7.63565e-11
5.40254e-11
-6.91583e-11
5.59956e-11
-5.82911e-11
5.73955e-11
-4.42022e-11
5.82309e-11
-2.75977e-11
5.8509e-11
-9.39669e-12
5.82326e-11
9.35446e-12
5.7399e-11
2.75605e-11
5.60009e-11
4.41743e-11
5.40322e-11
5.82756e-11
5.14946e-11
6.91564e-11
4.84072e-11
7.63676e-11
4.48126e-11
7.97723e-11
4.0786e-11
7.95201e-11
3.64303e-11
7.60689e-11
3.18743e-11
7.0031e-11
2.72826e-11
6.21829e-11
2.27335e-11
5.35142e-11
1.85243e-11
4.36646e-11
1.44532e-11
3.67661e-11
2.41967e-11
1.11246e-11
1.67232e-11
-2.77816e-11
2.09934e-11
-4.10351e-11
2.53802e-11
-4.80434e-11
3.00612e-11
-5.81802e-11
3.47373e-11
-6.68364e-11
3.9339e-11
-7.46049e-11
4.37008e-11
-8.04006e-11
4.77044e-11
-8.34956e-11
5.12548e-11
-8.33012e-11
5.42867e-11
-7.93884e-11
5.67662e-11
-7.16378e-11
5.86818e-11
-6.02067e-11
6.0038e-11
-4.55584e-11
6.08455e-11
-2.84051e-11
6.11139e-11
-9.66514e-12
6.08472e-11
9.62123e-12
6.00414e-11
2.83662e-11
5.86868e-11
4.55289e-11
5.67728e-11
6.01896e-11
5.42947e-11
7.16345e-11
5.12639e-11
7.93985e-11
4.77139e-11
8.33223e-11
4.371e-11
8.3524e-11
3.93471e-11
8.04318e-11
3.47437e-11
7.46344e-11
3.00656e-11
6.6861e-11
2.53823e-11
5.81975e-11
2.09935e-11
4.80534e-11
1.67215e-11
4.10382e-11
2.77793e-11
1.31389e-11
1.92e-11
-3.16066e-11
2.36565e-11
-4.54916e-11
2.82086e-11
-5.25955e-11
3.30054e-11
-6.2977e-11
3.77517e-11
-7.15826e-11
4.23849e-11
-7.92381e-11
4.67396e-11
-8.47552e-11
5.07081e-11
-8.74641e-11
5.42038e-11
-8.6797e-11
5.71711e-11
-8.23558e-11
5.9585e-11
-7.40516e-11
6.14415e-11
-6.20633e-11
6.27513e-11
-4.68682e-11
6.35291e-11
-2.91829e-11
6.37873e-11
-9.92338e-12
6.35306e-11
9.87791e-12
6.27544e-11
2.91424e-11
6.14463e-11
4.6837e-11
5.95914e-11
6.20446e-11
5.71789e-11
7.40469e-11
5.42127e-11
8.23647e-11
5.07176e-11
8.68174e-11
4.6749e-11
8.74925e-11
4.23935e-11
8.47872e-11
3.77588e-11
7.92692e-11
3.30105e-11
7.16093e-11
2.82114e-11
6.29966e-11
2.36572e-11
5.26076e-11
1.91988e-11
4.54966e-11
3.16056e-11
1.53725e-11
2.18918e-11
-3.56628e-11
2.65189e-11
-5.01187e-11
3.12205e-11
-5.7297e-11
3.6114e-11
-6.78706e-11
4.09137e-11
-7.63823e-11
4.55618e-11
-8.38863e-11
4.98944e-11
-8.90878e-11
5.38153e-11
-9.1385e-11
5.7246e-11
-9.02276e-11
6.01405e-11
-8.52504e-11
6.24826e-11
-7.63937e-11
6.42756e-11
-6.38563e-11
6.55359e-11
-4.81284e-11
6.62823e-11
-2.99294e-11
6.65298e-11
-1.01709e-11
6.62838e-11
1.0124e-11
6.55388e-11
2.98874e-11
6.42801e-11
4.80957e-11
6.24887e-11
6.3836e-11
6.01481e-11
7.63875e-11
5.72547e-11
8.52581e-11
5.38249e-11
9.02473e-11
4.99041e-11
9.14133e-11
4.55708e-11
8.91205e-11
4.09213e-11
8.39187e-11
3.61197e-11
7.64109e-11
3.12239e-11
6.78924e-11
2.65202e-11
5.73113e-11
2.18911e-11
5.01257e-11
3.56632e-11
1.78335e-11
2.48044e-11
-3.99358e-11
2.95853e-11
-5.48996e-11
3.44186e-11
-6.21304e-11
3.93891e-11
-7.28411e-11
4.4225e-11
-8.12181e-11
4.8871e-11
-8.85323e-11
5.31666e-11
-9.33834e-11
5.70271e-11
-9.52456e-11
6.03822e-11
-9.35826e-11
6.31958e-11
-8.8064e-11
6.54597e-11
-7.86576e-11
6.71847e-11
-6.55813e-11
6.83925e-11
-4.93362e-11
6.91059e-11
-3.06428e-11
6.93421e-11
-1.0407e-11
6.91072e-11
1.03588e-11
6.83952e-11
3.05995e-11
6.71889e-11
4.9302e-11
6.54655e-11
6.55595e-11
6.3203e-11
7.86499e-11
6.03907e-11
8.80704e-11
5.70366e-11
9.36014e-11
5.31763e-11
9.52736e-11
4.88803e-11
9.34165e-11
4.42331e-11
8.85659e-11
3.93955e-11
8.12485e-11
3.44227e-11
7.28651e-11
2.95872e-11
6.21469e-11
2.48042e-11
5.49087e-11
3.99378e-11
2.05296e-11
2.79433e-11
-4.44096e-11
3.28599e-11
-5.98162e-11
3.78059e-11
-6.70763e-11
4.28331e-11
-7.78683e-11
4.76871e-11
-8.60722e-11
5.23135e-11
-9.31586e-11
5.6557e-11
-9.76269e-11
6.03443e-11
-9.90329e-11
6.36132e-11
-9.68514e-11
6.63375e-11
-9.07883e-11
6.8517e-11
-8.08372e-11
7.01694e-11
-6.72337e-11
7.13217e-11
-5.04884e-11
7.20003e-11
-3.13214e-11
7.22245e-11
-1.06313e-11
7.20014e-11
1.05819e-11
7.13241e-11
3.12768e-11
7.01733e-11
5.04528e-11
6.85224e-11
6.72104e-11
6.63443e-11
8.08279e-11
6.36214e-11
9.07933e-11
6.03536e-11
9.68692e-11
5.65668e-11
9.90605e-11
5.2323e-11
9.76603e-11
4.76957e-11
9.31932e-11
4.284e-11
8.61042e-11
3.78106e-11
7.78945e-11
3.28624e-11
6.7095e-11
2.79437e-11
5.98275e-11
4.44133e-11
2.34682e-11
3.13137e-11
-4.90661e-11
3.63467e-11
-6.48491e-11
4.13847e-11
-7.21143e-11
4.6448e-11
-8.29316e-11
5.13016e-11
-9.09258e-11
5.58904e-11
-9.77474e-11
6.00664e-11
-1.01803e-10
6.37676e-11
-1.02734e-10
6.69395e-11
-1.00023e-10
6.95661e-11
-9.34149e-11
7.16549e-11
-8.2926e-11
7.32301e-11
-6.88089e-11
7.43237e-11
-5.1582e-11
7.49657e-11
-3.19635e-11
7.51775e-11
-1.08431e-11
7.49667e-11
1.07927e-11
7.43258e-11
3.19177e-11
7.32336e-11
5.15451e-11
7.16598e-11
6.87841e-11
6.95726e-11
8.29152e-11
6.69474e-11
9.34184e-11
6.37766e-11
1.0004e-10
6.00762e-11
1.02761e-10
5.59001e-11
1.01836e-10
5.13105e-11
9.77828e-11
4.64554e-11
9.09594e-11
4.13901e-11
8.29598e-11
3.63499e-11
7.21352e-11
3.13147e-11
6.48627e-11
4.90717e-11
2.66563e-11
3.49205e-11
-5.38858e-11
4.00492e-11
-6.99778e-11
4.51575e-11
-7.72226e-11
5.02355e-11
-8.80096e-11
5.50696e-11
-9.576e-11
5.96026e-11
-1.0228e-10
6.36956e-11
-1.05896e-10
6.72974e-11
-1.06336e-10
7.03617e-11
-1.03088e-10
7.28822e-11
-9.59353e-11
7.48737e-11
-8.49175e-11
7.63671e-11
-7.03023e-11
7.73989e-11
-5.26138e-11
7.80025e-11
-3.25671e-11
7.82012e-11
-1.10419e-11
7.80034e-11
1.09906e-11
7.74007e-11
3.25204e-11
7.63701e-11
5.25757e-11
7.48782e-11
7.02761e-11
7.28881e-11
8.49052e-11
7.03692e-11
9.59374e-11
6.73061e-11
1.03103e-10
6.37052e-11
1.06362e-10
5.96123e-11
1.05929e-10
5.50788e-11
1.02316e-10
5.02434e-11
9.57947e-11
4.51635e-11
8.80398e-11
4.00531e-11
7.72457e-11
3.49221e-11
6.99937e-11
5.38934e-11
3.01004e-11
3.87683e-11
-5.88475e-11
4.39708e-11
-7.51803e-11
4.91264e-11
-8.23782e-11
5.41975e-11
-9.30807e-11
5.89922e-11
-1.00555e-10
6.34506e-11
-1.06739e-10
6.74451e-11
-1.0989e-10
7.09341e-11
-1.09825e-10
7.388e-11
-1.06034e-10
7.62858e-11
-9.83412e-11
7.81737e-11
-8.68054e-11
7.95804e-11
-7.1709e-11
8.05473e-11
-5.35806e-11
8.11107e-11
-3.31305e-11
8.12958e-11
-1.1227e-11
8.11114e-11
1.1175e-11
8.05488e-11
3.3083e-11
7.9583e-11
5.35415e-11
7.81776e-11
7.16815e-11
7.62912e-11
8.67916e-11
7.3887e-11
9.83416e-11
7.09425e-11
1.06048e-10
6.74545e-11
1.0985e-10
6.34604e-11
1.09923e-10
5.90016e-11
1.06775e-10
5.42058e-11
1.00591e-10
4.91329e-11
9.31126e-11
4.39753e-11
8.24033e-11
3.87705e-11
7.51985e-11
5.88571e-11
3.38068e-11
4.28612e-11
-6.39282e-11
4.81144e-11
-8.04335e-11
5.32933e-11
-8.75571e-11
5.83352e-11
-9.81226e-11
6.307e-11
-1.05289e-10
6.74352e-11
-1.11104e-10
7.13152e-11
-1.1377e-10
7.4678e-11
-1.13188e-10
7.74946e-11
-1.0885e-10
7.97772e-11
-1.00624e-10
8.15548e-11
-8.8583e-11
8.28702e-11
-7.30245e-11
8.37689e-11
-5.44793e-11
8.42903e-11
-3.36519e-11
8.44611e-11
-1.13978e-11
8.42908e-11
1.13452e-11
8.37701e-11
3.36037e-11
8.28724e-11
5.44392e-11
8.15582e-11
7.29958e-11
7.9782e-11
8.85677e-11
7.7501e-11
1.00623e-10
7.46859e-11
1.08863e-10
7.13242e-11
1.13211e-10
6.74449e-11
1.13803e-10
6.30795e-11
1.11141e-10
5.83439e-11
1.05326e-10