/*--------------------------------*- C++ -*----------------------------------*\
| =========                 |                                                 |
| \\      /  F ield         | OpenFOAM: The Open Source CFD Toolbox           |
|  \\    /   O peration     | Version:  2.4.0                                 |
|   \\  /    A nd           | Web:      www.OpenFOAM.org                      |
|    \\/     M anipulation  |                                                 |
\*---------------------------------------------------------------------------*/
FoamFile
{
    version     2.0;
    format      ascii;
    class       volVectorField;
    location    "0.01";
    object      U;
}
// * * * * * * * * * * * * * * * * * * * * * * * * * * * * * * * * * * * * * //

dimensions      [0 1 -1 0 0 0 0];

internalField   nonuniform List<vector> 
7200
(
(1.05227e-07 1.49123e-07 0)
(8.24572e-07 1.4352e-06 6.98943e-24)
(-2.86082e-06 -6.52917e-06 -1.74155e-23)
(-1.7761e-05 -3.28604e-05 -9.4746e-25)
(-3.59548e-05 -5.49626e-05 1.35523e-22)
(-3.64215e-05 -4.30264e-05 -4.88831e-22)
(6.25191e-06 1.73478e-05 -6.49038e-24)
(0.000124432 0.000129942 7.2011e-24)
(0.000356617 0.000288283 1.33548e-21)
(0.000733021 0.000467686 -2.47895e-23)
(0.00125294 0.000622275 8.96775e-22)
(0.00186835 0.00069609 8.49598e-22)
(0.00248592 0.000645001 7.15119e-22)
(0.00298912 0.00045789 0)
(0.00327211 0.000165771 1.11723e-24)
(0.00327214 -0.000165774 0)
(0.00298918 -0.000457897 2.42986e-24)
(0.00248592 -0.000644992 3.14591e-23)
(0.00186821 -0.000696015 -8.22278e-22)
(0.0012526 -0.000622078 -3.60062e-23)
(0.000732508 -0.00046734 -1.17202e-23)
(0.000356049 -0.000287825 2.6373e-21)
(0.000123937 -0.000129463 -1.05686e-24)
(5.90947e-06 -1.69474e-05 -7.35243e-22)
(-3.66029e-05 4.32863e-05 -2.38573e-22)
(-3.60168e-05 5.50785e-05 -1.30203e-22)
(-1.77581e-05 3.28797e-05 0)
(-2.83932e-06 6.51744e-06 -2.90782e-24)
(8.31358e-07 -1.43859e-06 4.81516e-24)
(1.05344e-07 -1.48763e-07 -3.95247e-25)
(1.2271e-07 7.50173e-07 1.46058e-26)
(-6.30669e-07 9.02928e-07 -5.81116e-24)
(-1.43482e-05 -3.41924e-05 1.12476e-23)
(-5.08774e-05 -0.000109713 -1.87457e-24)
(-8.11805e-05 -0.000148959 -2.00342e-22)
(-4.08385e-05 -8.00808e-05 -3.08242e-23)
(0.00014737 0.000123435 7.82542e-24)
(0.000574502 0.000461495 -1.52073e-21)
(0.00133423 0.000904164 -5.88105e-23)
(0.00248263 0.0013753 1.08173e-21)
(0.00398767 0.00175331 -1.1762e-21)
(0.0057008 0.00190306 -1.26395e-21)
(0.00737235 0.00172703 -2.0234e-21)
(0.00870905 0.00121 -3.2428e-22)
(0.00945272 0.000435266 3.26129e-23)
(0.00945284 -0.000435292 2.6537e-23)
(0.00870932 -0.00121003 -3.0972e-22)
(0.00737252 -0.00172703 1.04038e-21)
(0.00570058 -0.0019029 1.0324e-22)
(0.0039869 -0.00175283 -1.2652e-21)
(0.00248136 -0.00137442 1.11734e-21)
(0.00133273 -0.000902951 -7.65003e-23)
(0.000573101 -0.000460168 -1.52819e-21)
(0.000146322 -0.000122263 1.11168e-21)
(-4.14577e-05 8.09052e-05 3.67522e-22)
(-8.14462e-05 0.000149383 4.11286e-22)
(-5.0932e-05 0.000109831 1.74989e-24)
(-1.43229e-05 3.41753e-05 -2.30478e-23)
(-6.23695e-07 -9.18816e-07 -7.56022e-24)
(1.21762e-07 -7.499e-07 1.72336e-26)
(-5.88972e-08 1.38883e-06 -6.86155e-25)
(-4.65282e-06 -5.06498e-06 -6.49309e-26)
(-3.45786e-05 -7.37188e-05 -1.51563e-23)
(-9.09361e-05 -0.000183648 1.22112e-22)
(-0.00010844 -0.000208533 -2.68261e-22)
(2.18115e-05 -5.50053e-05 8.30264e-22)
(0.000422873 0.000303991 0)
(0.00123373 0.000855594 1.56687e-21)
(0.00258158 0.00153841 -1.96774e-21)
(0.00451922 0.00222722 -1.12752e-21)
(0.00696127 0.00274406 1.12701e-22)
(0.00965895 0.00290625 -9.04573e-24)
(0.0122339 0.00259262 9.72165e-22)
(0.0142625 0.00179679 3.26581e-22)
(0.0153814 0.000642925 -8.29598e-25)
(0.0153816 -0.000643014 -4.96493e-23)
(0.0142631 -0.00179689 3.13644e-22)
(0.0122344 -0.00259265 0)
(0.00965891 -0.00290604 2.19014e-21)
(0.00696039 -0.00274337 1.09094e-21)
(0.0045175 -0.00222593 -1.09401e-21)
(0.00257936 -0.0015366 -1.92326e-21)
(0.00123152 -0.000853563 -1.083e-23)
(0.0004211 -0.000302125 5.8689e-22)
(2.06754e-05 5.6393e-05 5.31867e-24)
(-0.000108988 0.00020932 -4.93215e-22)
(-9.10929e-05 0.000183925 0)
(-3.45577e-05 7.37288e-05 6.31132e-24)
(-4.64416e-06 5.03741e-06 0)
(-6.23802e-08 -1.39011e-06 7.83266e-25)
(-9.54628e-07 1.66401e-06 7.58119e-25)
(-1.33006e-05 -1.75783e-05 0)
(-6.28134e-05 -0.000121463 1.4955e-23)
(-0.000127133 -0.00024722 3.04081e-23)
(-9.72982e-05 -0.000230218 2.75072e-22)
(0.000175802 2.79894e-05 -4.32704e-22)
(0.00085488 0.000546599 -1.00903e-23)
(0.00211493 0.00129268 -1.50328e-21)
(0.00409559 0.00216997 0)
(0.00682352 0.00301116 -1.6211e-23)
(0.0101475 0.00360029 1.13509e-21)
(0.013725 0.00373105 -9.79211e-22)
(0.0170748 0.00327798 7.42126e-24)
(0.0196794 0.00224978 0)
(0.0211051 0.00080118 2.42882e-23)
(0.0211055 -0.000801384 4.52544e-23)
(0.0196804 -0.00224998 0)
(0.0170758 -0.00327808 7.25278e-24)
(0.0137254 -0.00373082 -1.04723e-21)
(0.0101468 -0.00359947 -1.11542e-21)
(0.00682164 -0.00300957 0)
(0.00409289 -0.0021677 0)
(0.00211204 -0.00129007 1.48613e-21)
(0.000852405 -0.000544122 -5.94791e-22)
(0.000174094 -2.60607e-05 -4.26727e-22)
(-9.82132e-05 0.000231395 2.64821e-22)
(-0.000127464 0.000247706 0)
(-6.28398e-05 0.00012153 2.91504e-23)
(-1.32919e-05 1.75449e-05 -1.12149e-25)
(-9.58997e-07 -1.66807e-06 0)
(-3.23696e-06 1.06936e-06 1.81841e-24)
(-2.79646e-05 -3.70217e-05 1.76114e-25)
(-9.60522e-05 -0.000172744 -1.19459e-25)
(-0.00014815 -0.000293126 2.82994e-23)
(-3.04266e-05 -0.000210683 3.26381e-22)
(0.000440299 0.000165531 7.77688e-24)
(0.00145966 0.000840713 -1.88347e-23)
(0.00322527 0.00175678 1.54555e-21)
(0.00586989 0.00278315 0)
(0.0093774 0.00371973 -9.71844e-22)
(0.0135253 0.00432891 1.6009e-23)
(0.0178874 0.00439842 7.59916e-23)
(0.0219024 0.00381091 6.81687e-24)
(0.0249878 0.00259239 6.80411e-25)
(0.0266652 0.000919151 -2.50789e-23)
(0.0266658 -0.000919536 -2.08204e-23)
(0.0249893 -0.00259276 2.3108e-22)
(0.0219041 -0.00381114 0)
(0.0178884 -0.00439824 -7.63842e-24)
(0.013525 -0.00432801 7.36687e-24)
(0.00937564 -0.00371793 1.48471e-23)
(0.00586696 -0.00278053 -1.39842e-23)
(0.00322186 -0.0017537 -1.50583e-21)
(0.00145654 -0.000837708 -5.9128e-22)
(0.000437993 -0.000163094 4.42861e-22)
(-3.17769e-05 0.000212267 3.15993e-22)
(-0.000148724 0.000293864 1.80011e-22)
(-9.61699e-05 0.000172906 -3.02637e-23)
(-2.7966e-05 3.69933e-05 0)
(-3.24106e-06 -1.07702e-06 0)
(-7.72459e-06 -9.32411e-07 5.70058e-25)
(-4.92546e-05 -6.28831e-05 7.78252e-25)
(-0.000129039 -0.000222095 -3.93864e-25)
(-0.000140889 -0.000315121 2.624e-23)
(0.000109873 -0.000148563 9.94438e-24)
(0.000833679 0.00035254 6.75522e-24)
(0.00225163 0.00117498 0)
(0.00456991 0.0022327 0)
(0.00789788 0.00336439 8.35406e-22)
(0.0121655 0.00434742 1.85285e-21)
(0.0170789 0.00493634 -8.8443e-22)
(0.0221397 0.00492564 1.73365e-21)
(0.0267266 0.00421342 0)
(0.0302142 0.00284278 0)
(0.0320987 0.00100383 0)
(0.0320995 -0.00100447 0)
(0.0302163 -0.00284337 -2.30558e-22)
(0.026729 -0.00421381 -2.18857e-24)
(0.0221416 -0.00492554 -8.03204e-22)
(0.0170793 -0.00493542 -6.81535e-24)
(0.0121641 -0.00434548 0)
(0.00789494 -0.00336151 0)
(0.00456616 -0.00222925 0)
(0.00224796 -0.00117152 1.1925e-21)
(0.000830777 -0.000349641 6.56538e-24)
(0.000108032 0.000150551 -3.29682e-22)
(-0.000141781 0.000316143 -1.85854e-22)
(-0.000129302 0.000222389 0)
(-4.92855e-05 6.28754e-05 0)
(-7.72941e-06 9.21137e-07 0)
(-1.5234e-05 -4.82976e-06 -2.91484e-24)
(-7.64921e-05 -9.37136e-05 -7.97417e-24)
(-0.000153885 -0.00026375 -7.59268e-25)
(-9.03946e-05 -0.000308503 2.72632e-23)
(0.000341661 -4.44876e-05 -3.64322e-22)
(0.00137342 0.000582514 -8.04415e-24)
(0.00324329 0.00153773 -5.82058e-22)
(0.0061521 0.0027066 -1.08208e-23)
(0.0101726 0.00390278 -3.41275e-23)
(0.0151747 0.00489123 -1.78499e-21)
(0.0207963 0.00542981 1.7681e-21)
(0.026479 0.00532836 -8.31145e-22)
(0.0315582 0.00450423 -5.72943e-24)
(0.0353834 0.00301595 2.01762e-22)
(0.0374387 0.00106093 -5.6806e-25)
(0.0374397 -0.00106191 5.21475e-25)
(0.035386 -0.00301683 -1.89873e-22)
(0.0315616 -0.00450484 -2.90381e-22)
(0.0264818 -0.00532838 8.03275e-22)
(0.0207975 -0.00542891 6.29023e-24)
(0.0151739 -0.00488921 1.33716e-23)
(0.0101699 -0.0038997 -1.26436e-23)
(0.00614819 -0.00270285 -1.05905e-23)
(0.00323917 -0.0015339 -1.17023e-21)
(0.00136995 -0.000579201 -7.85396e-24)
(0.000339289 4.68639e-05 -3.59974e-22)
(-9.16713e-05 0.000309826 -2.39438e-22)
(-0.000154354 0.000264211 -2.11464e-24)
(-7.65827e-05 9.37467e-05 0)
(-1.52443e-05 4.81599e-06 0)
(-2.63519e-05 -1.09849e-05 0)
(-0.000107165 -0.000127188 8.36382e-24)
(-0.000159946 -0.000292131 0)
(1.98847e-05 -0.000270373 -2.63887e-22)
(0.000683184 9.90668e-05 5.44947e-24)
(0.00207609 0.000847818 0)
(0.00444538 0.00191735 6.10754e-22)
(0.00797362 0.00316622 0)
(0.0126872 0.00438999 -8.06078e-22)
(0.0183936 0.00535051 8.42778e-22)
(0.0246684 0.00581739 -1.61857e-21)
(0.0309047 0.00562118 1.03194e-24)
(0.036409 0.0046998 2.85536e-22)
(0.0405183 0.00312468 -1.92673e-23)
(0.0427151 0.00109525 0)
(0.0427163 -0.00109665 1.37662e-23)
(0.0405215 -0.00312594 3.62946e-22)
(0.0364132 -0.00470069 2.95679e-22)
(0.0309086 -0.00562138 5.98395e-24)
(0.0246707 -0.00581654 -7.63778e-22)
(0.0183936 -0.00534843 0)
(0.012685 -0.00438676 -7.29294e-22)
(0.00796975 -0.00316223 -1.09481e-23)
(0.00444095 -0.0019132 1.16743e-21)
(0.0020721 -0.000844144 1.49524e-23)
(0.000680265 -9.63277e-05 3.62847e-22)
(1.81616e-05 0.000272002 -1.9039e-23)
(-0.000160689 0.000292788 -1.09707e-24)
(-0.000107357 0.000127284 7.93231e-25)
(-2.63774e-05 1.09712e-05 0)
(-4.11157e-05 -1.95698e-05 -6.23629e-27)
(-0.000136385 -0.000160259 -3.06554e-23)
(-0.000133899 -0.000302325 -1.74995e-24)
(0.000207648 -0.000199696 4.92334e-24)
(0.00115255 0.00027811 -5.79539e-24)
(0.00295709 0.00114011 0)
(0.00586697 0.00230269 0)
(0.0100351 0.00360103 0)
(0.0154353 0.00482006 7.05175e-22)
(0.0218131 0.00572643 4.64228e-25)
(0.028689 0.00610759 8.01834e-22)
(0.0354188 0.0058176 -6.4774e-22)
(0.0412909 0.00481448 -2.64582e-23)
(0.0456403 0.00317983 -1.83717e-22)
(0.0479549 0.00111082 1.53324e-23)
(0.0479563 -0.00111274 -1.38264e-23)
(0.0456442 -0.00318155 -1.71679e-22)
(0.0412961 -0.00481572 4.60936e-24)
(0.0354238 -0.00581801 -4.50567e-24)
(0.0286925 -0.00610683 1.46146e-21)
(0.0218141 -0.00572433 0)
(0.0154337 -0.00481671 7.49053e-22)
(0.0100315 -0.00359685 -1.00544e-23)
(0.00586237 -0.00229829 -5.70628e-22)
(0.00295266 -0.00113612 -6.52915e-25)
(0.00114909 -0.00027504 -6.34877e-24)
(0.000205431 0.000201625 2.81308e-22)
(-0.000134984 0.000303198 -3.04727e-24)
(-0.00013673 0.000160442 0)
(-4.11723e-05 1.95603e-05 0)
(-5.86199e-05 -3.05223e-05 3.60789e-24)
(-0.000156422 -0.000189395 -1.2993e-23)
(-5.99801e-05 -0.000290489 -2.22786e-22)
(0.000491314 -9.72221e-05 5.18945e-24)
(0.0017675 0.000487482 -6.06888e-24)
(0.00403069 0.00145067 4.90548e-22)
(0.00751563 0.00268338 -5.74361e-22)
(0.0123365 0.00400235 9.94331e-24)
(0.018411 0.00518914 -7.24471e-22)
(0.0254259 0.00602165 6.78472e-22)
(0.0328545 0.00630908 1.12549e-23)
(0.0400245 0.00592988 5.46409e-23)
(0.0462161 0.00486076 -4.84567e-22)
(0.0507695 0.00319059 1.50843e-22)
(0.0531824 0.00111101 -1.53996e-23)
(0.0531841 -0.00111354 0)
(0.050774 -0.00319285 0)
(0.0462223 -0.00486241 4.18768e-24)
(0.0400308 -0.00593056 -5.68207e-22)
(0.0328592 -0.00630844 -7.03041e-22)
(0.025428 -0.00601955 -6.6986e-22)
(0.0184102 -0.0051857 0)
(0.0123333 -0.00399801 9.70221e-24)
(0.00751103 -0.00267875 5.4204e-22)
(0.00402592 -0.00144641 7.28562e-24)
(0.00176352 -0.000484113 3.90717e-22)
(0.000488571 9.94372e-05 -4.27785e-24)
(-6.1472e-05 0.000291589 3.47703e-24)
(-0.000156983 0.000189689 -4.54922e-23)
(-5.8731e-05 3.05228e-05 -3.01367e-26)
(-7.65728e-05 -4.3528e-05 -5.56063e-24)
(-0.000156375 -0.000210874 1.19063e-22)
(7.96216e-05 -0.000254158 2.29536e-22)
(0.000889634 3.47088e-05 3.35474e-22)
(0.00254522 0.000721191 0)
(0.00530988 0.00177078 -5.08245e-22)
(0.00939764 0.00305004 3.66794e-23)
(0.0148771 0.00436328 0)
(0.0216093 0.00549524 -6.32843e-22)
(0.0292266 0.00623992 -7.05447e-22)
(0.037163 0.00643044 -6.02705e-22)
(0.0447267 0.00596921 5.56798e-23)
(0.051197 0.00484946 2.37503e-22)
(0.0559243 0.00316476 -1.51165e-22)
(0.0584199 0.00109865 -3.88545e-25)
(0.0584218 -0.00110189 3.39775e-25)
(0.0559295 -0.00316764 1.0099e-24)
(0.0512042 -0.0048516 -1.32912e-24)
(0.0447343 -0.00597019 5.05179e-23)
(0.0371691 -0.00642995 4.45609e-24)
(0.0292301 -0.00623783 6.86137e-22)
(0.0216095 -0.00549172 6.05189e-22)
(0.0148745 -0.00435879 -9.30322e-24)
(0.0093932 -0.00304521 -5.42999e-22)
(0.00530488 -0.00176629 -3.32554e-25)
(0.00254077 -0.000717556 -4.13579e-22)
(0.000886353 -3.2229e-05 3.30157e-22)
(7.7665e-05 0.000255486 -6.71288e-24)
(-0.000157223 0.000211298 5.0325e-23)
(-7.67702e-05 4.35454e-05 -2.72203e-24)
(-9.08356e-05 -5.80289e-05 1.76685e-24)
(-0.000122012 -0.000221106 -6.87007e-23)
(0.000304269 -0.000192429 -3.63122e-24)
(0.00142136 0.000192457 -5.09362e-24)
(0.00350225 0.000972741 6.40169e-24)
(0.00680647 0.00209194 7.64056e-24)
(0.0115182 0.00339447 5.38382e-22)
(0.0176563 0.00467867 9.11463e-24)
(0.0250262 0.00573793 1.23056e-21)
(0.0332117 0.0063858 -9.23457e-24)
(0.0416146 0.00648004 1.18449e-21)
(0.0495313 0.00594566 5.34841e-22)
(0.0562456 0.00479002 0)
(0.0611222 0.00310894 -1.24125e-22)
(0.0636877 0.0010761 0)
(0.0636898 -0.00108015 0)
(0.061128 -0.00311253 0)
(0.0562539 -0.00479271 1.79242e-22)
(0.0495402 -0.005947 5.1981e-22)
(0.0416222 -0.00647973 5.31296e-22)
(0.0332165 -0.00638374 0)
(0.0250276 -0.00573434 -6.217e-22)
(0.0176545 -0.00467403 5.49546e-22)
(0.0115141 -0.00338946 8.13045e-24)
(0.00680137 -0.00208723 -1.86102e-25)
(0.0034974 -0.000968867 -6.47435e-24)
(0.00141755 -0.000189736 5.16954e-25)
(0.000301803 0.000193978 0)
(-0.000123223 0.000221675 8.50358e-23)
(-9.11593e-05 5.80712e-05 8.79608e-25)
(-9.49814e-05 -7.32587e-05 0)
(-3.58092e-05 -0.000216961 1.12791e-22)
(0.000634315 -0.000106007 -4.24675e-24)
(0.00210502 0.00037143 -8.94613e-24)
(0.00465438 0.00123542 6.46931e-24)
(0.00853106 0.00240614 -7.39867e-24)
(0.0138816 0.00370977 5.08664e-22)
(0.0206732 0.00494496 -5.3224e-22)
(0.0286587 0.00591812 -5.97259e-22)
(0.0373789 0.00646441 -8.49373e-24)
(0.0462108 0.00646595 -5.56913e-22)
(0.0544449 0.00586833 7.45696e-25)
(0.0613739 0.00469061 3.29337e-24)
(0.0663793 0.00302876 1.24712e-22)
(0.0690043 0.00104538 -1.07015e-23)
(0.0690066 -0.00105032 0)
(0.0663858 -0.00303315 1.08853e-24)
(0.0613832 -0.00469392 -1.81267e-22)
(0.054455 -0.00587009 -3.79091e-24)
(0.0462198 -0.00646584 -1.02264e-21)
(0.0373852 -0.00646239 -5.14022e-22)
(0.0286614 -0.00591444 -8.43633e-24)
(0.0206723 -0.00494018 -5.65252e-22)
(0.013878 -0.00370458 1.56661e-23)
(0.00852601 -0.00240122 -5.08654e-26)
(0.00464922 -0.00123132 3.9473e-22)
(0.0021007 -0.000368488 -6.90166e-22)
(0.00063131 0.000107762 0)
(-3.74591e-05 0.000217685 -8.90353e-23)
(-9.54802e-05 7.33342e-05 1.76113e-24)
(-7.99192e-05 -8.83018e-05 0)
(0.000122791 -0.000196064 -1.11592e-22)
(0.00109053 2.8986e-06 -4.79472e-24)
(0.00295869 0.000566446 -3.59304e-22)
(0.00601659 0.00150252 -6.47891e-24)
(0.0104932 0.00270605 -4.4388e-22)
(0.0164914 0.00399037 -5.08753e-22)
(0.0239275 0.00516007 5.39319e-22)
(0.0325049 0.00603777 -8.07624e-24)
(0.0417277 0.00648124 -4.98379e-22)
(0.0509544 0.0063958 8.05254e-24)
(0.0594746 0.0057454 0)
(0.0665935 0.00455833 0)
(0.0717107 0.00292901 0)
(0.0743866 0.00100815 2.05446e-23)
(0.0743891 -0.00101408 0)
(0.0717177 -0.00293428 8.78805e-23)
(0.0666037 -0.00456233 9.63239e-25)
(0.0594861 -0.00574762 0)
(0.0509649 -0.00639593 4.90622e-22)
(0.0417355 -0.00647926 1.01318e-21)
(0.032509 -0.00603401 -4.96864e-22)
(0.0239277 -0.00515513 4.72905e-22)
(0.0164885 -0.00398498 -9.56995e-26)
(0.0104883 -0.00270092 4.37045e-22)
(0.00601122 -0.00149821 -4.1107e-22)
(0.00295392 -0.000563301 3.54132e-22)
(0.00108697 -9.55442e-07 -2.88931e-22)
(0.000120631 0.000196945 0)
(-8.06486e-05 8.84186e-05 0)
(-3.36203e-05 -0.000102169 0)
(0.000376927 -0.000157026 0)
(0.00169356 0.000130796 3.02073e-22)
(0.004 0.000772084 5.67792e-24)
(0.00760299 0.00176757 -6.43641e-24)
(0.0127012 0.00298516 4.45954e-22)
(0.019351 0.00423202 1.45303e-23)
(0.0274189 0.00532322 -7.65195e-24)
(0.0365636 0.0060997 0)
(0.0462585 0.00644195 4.9636e-22)
(0.055849 0.00627682 4.30171e-22)
(0.0646281 0.00558418 -2.65711e-24)
(0.0719156 0.00439934 1.44877e-22)
(0.0771304 0.00281375 -2.62929e-25)
(0.0798503 0.000965851 -9.57476e-24)
(0.079853 -0.000972859 5.45229e-24)
(0.0771381 -0.00281999 -8.90661e-23)
(0.0719268 -0.00440411 1.29163e-22)
(0.0646408 -0.00558692 -3.39781e-22)
(0.055861 -0.00627722 0)
(0.0462679 -0.00644003 -4.00739e-23)
(0.0365693 -0.00609585 9.35965e-22)
(0.0274204 -0.0053181 -4.7981e-22)
(0.0193489 -0.00422641 1.73905e-25)
(0.0126967 -0.00297982 -2.79965e-23)
(0.00759754 -0.00176306 3.79946e-22)
(0.00399484 -0.000768745 3.49591e-22)
(0.00168947 -0.000128683 2.95279e-22)
(0.000374198 0.000158062 4.0822e-24)
(-3.4641e-05 0.000102335 0)
(5.90176e-05 -0.000113884 0)
(0.000751701 -9.95902e-05 1.63066e-22)
(0.00246352 0.000273238 -6.20256e-22)
(0.005246 0.000982984 -3.60666e-22)
(0.00942683 0.00202447 -3.86053e-22)
(0.0151629 0.00323794 6.43689e-24)
(0.0224633 0.00443177 -6.93929e-24)
(0.0311478 0.00543477 0)
(0.040835 0.00610738 -4.2974e-22)
(0.0509729 0.00635225 4.09381e-22)
(0.0608991 0.00611573 -4.22176e-22)
(0.0699132 0.00539122 2.97861e-24)
(0.0773511 0.00421901 -2.71266e-22)
(0.0826517 0.00268648 0)
(0.0854096 0.000919676 0)
(0.0854125 -0.000927845 -5.69067e-24)
(0.0826599 -0.00269376 7.74901e-25)
(0.0773632 -0.00422461 -1.55122e-23)
(0.0699271 -0.00539452 3.39111e-22)
(0.0609126 -0.00611644 3.61676e-22)
(0.0509839 -0.00635041 -8.31501e-22)
(0.0408422 -0.00610343 -4.53548e-22)
(0.0311506 -0.00542944 6.86169e-24)
(0.0224622 -0.00442592 -6.45997e-24)
(0.0151589 -0.00323236 -4.12276e-22)
(0.00942143 -0.00201974 -3.95295e-22)
(0.00524054 -0.000979451 -3.65778e-22)
(0.00245894 -0.000270969 -2.91019e-22)
(0.000748358 0.000100774 1.94446e-24)
(5.76432e-05 0.000114105 -1.47176e-24)
(0.000216148 -0.000122569 -1.46053e-22)
(0.00127344 -2.4675e-05 -2.56286e-24)
(0.00341966 0.000425203 6.08325e-22)
(0.00671325 0.00119407 3.71671e-22)
(0.0115004 0.00226759 3.95509e-22)
(0.0178849 0.00345988 -6.05825e-24)
(0.0258311 0.00458787 6.50768e-24)
(0.0351149 0.005496 0)
(0.0453197 0.00606477 4.34418e-22)
(0.0558734 0.00621781 -4.19593e-22)
(0.0661098 0.0059188 0)
(0.0753376 0.00517235 0)
(0.0829105 0.00402198 1.29021e-22)
(0.0882867 0.00255014 2.16576e-25)
(0.0910778 0.000870642 7.33292e-24)
(0.0910808 -0.000880051 1.64707e-25)
(0.0882954 -0.00255854 -1.6388e-25)
(0.0829233 -0.00402848 -1.13728e-22)
(0.0753527 -0.00517628 2.71867e-22)
(0.0661247 -0.00591984 -6.85752e-22)
(0.0558861 -0.00621605 4.02901e-22)
(0.0453286 -0.00606071 -5.89451e-24)
(0.0351193 -0.00549044 3.75996e-22)
(0.0258311 -0.00458173 0)
(0.0178816 -0.00345402 6.15245e-24)
(0.0114952 -0.0022626 -5.62496e-24)
(0.00670759 -0.00119033 0)
(0.00341464 -0.000422787 5.88008e-22)
(0.00126946 2.59956e-05 0)
(0.000214359 0.00012285 -1.42506e-22)
(0.000458786 -0.000127525 1.53659e-22)
(0.00196889 6.56864e-05 1.53411e-22)
(0.0045802 0.000581498 -3.07206e-22)
(0.00841782 0.0014007 5.41756e-24)
(0.0138351 0.00249186 -6.03429e-24)
(0.0208734 0.00364753 3.60697e-22)
(0.0294573 0.00469965 -1.18249e-23)
(0.0393218 0.00550899 6.08825e-24)
(0.0500196 0.00597613 3.56687e-22)
(0.0609634 0.00604415 -5.33534e-24)
(0.0714866 0.0056918 -3.09554e-22)
(0.0809095 0.00493276 4.71488e-25)
(0.0886035 0.00381229 1.06078e-22)
(0.0940469 0.00240727 -1.96506e-25)
(0.096867 0.000819611 -7.38732e-24)
(0.0968702 -0.000830333 -1.437e-25)
(0.094056 -0.00241686 7.50366e-25)
(0.0886172 -0.00381975 9.15955e-23)
(0.0809256 -0.00493737 -3.59461e-23)
(0.0715029 -0.00569321 3.92392e-23)
(0.0609776 -0.00604249 0)
(0.05003 -0.00597195 -3.35136e-22)
(0.0393276 -0.00550316 -7.28651e-22)
(0.0294585 -0.00469319 5.49396e-24)
(0.0208709 -0.00364134 3.45778e-22)
(0.0138302 -0.0024866 -5.31864e-24)
(0.00841207 -0.00139674 0)
(0.00457481 -0.000578932 -3.02126e-22)
(0.00196428 -6.42388e-05 1.42574e-24)
(0.000456527 0.000127871 1.54807e-22)
(0.000810458 -0.000128293 2.7058e-22)
(0.0028645 0.000168507 -1.81488e-22)
(0.00596231 0.000737128 -2.88744e-22)
(0.0103753 0.00159875 0)
(0.0164412 0.00269288 0)
(0.0241341 0.00379851 -3.67306e-22)
(0.0333448 0.00476742 5.60244e-24)
(0.0437701 0.00547644 3.28289e-22)
(0.0549368 0.00584594 -3.79501e-23)
(0.0662465 0.00583659 3.0289e-22)
(0.0770354 0.00544002 3.22061e-22)
(0.0866365 0.00467709 -3.93977e-24)
(0.0944398 0.00359343 -1.02872e-22)
(0.0999428 0.00226003 0)
(0.102789 0.000767312 0)
(0.102792 -0.000779412 0)
(0.0999523 -0.00227087 0)
(0.0944541 -0.00360191 -8.93437e-23)
(0.0866536 -0.00468242 -2.42136e-22)
(0.077053 -0.00544184 5.42069e-22)
(0.0662623 -0.00583504 2.88144e-22)
(0.0549489 -0.00584163 3.35949e-23)
(0.0437776 -0.00547032 4.30983e-23)
(0.0333475 -0.00476059 3.28602e-25)
(0.0241326 -0.00379195 -3.22075e-23)
(0.0164368 -0.00268729 6.2001e-25)
(0.0103696 -0.00159452 -5.0536e-24)
(0.00595666 -0.000734399 0)
(0.00285928 -0.000166939 0)
(0.000807685 0.00012871 0)
(0.00129672 -0.000124697 -6.51105e-22)
(0.00398569 0.000280084 -2.76534e-22)
(0.00758222 0.000887606 2.94032e-22)
(0.0126007 0.0017846 -3.37163e-22)
(0.0193284 0.00286694 0)
(0.0276725 0.00391149 0)
(0.0374969 0.00479227 0)
(0.0484623 0.00540152 -3.3263e-22)
(0.0600743 0.00567874 -6.11818e-22)
(0.0717273 0.0056002 -3.19558e-22)
(0.0827622 0.00516832 2.54443e-22)
(0.0925263 0.00440941 1.95612e-24)
(0.100428 0.00336843 -8.39441e-23)
(0.105984 0.00211026 0)
(0.108853 0.000714362 0)
(0.108856 -0.000727899 0)
(0.105994 -0.00212241 4.67703e-25)
(0.100443 -0.00337799 6.93533e-23)
(0.0925443 -0.00441551 0)
(0.082781 -0.00517059 -2.56745e-22)
(0.0717445 -0.00559878 -2.85746e-22)
(0.0600881 -0.00567429 3.03674e-22)
(0.0484714 -0.00539508 3.12653e-22)
(0.037501 -0.00478502 2.86977e-22)
(0.0276721 -0.0039045 -3.24881e-22)
(0.0193246 -0.00286097 5.32187e-24)
(0.0125951 -0.00178007 1.9955e-25)
(0.00757641 -0.000884685 -4.44481e-24)
(0.00397992 -0.000278397 0)
(0.00129341 0.00012519 0)
(0.0019446 -0.000116852 8.24844e-22)
(0.00535634 0.000396292 2.26693e-22)
(0.00945536 0.00102917 0)
(0.0151086 0.00195512 3.47177e-22)
(0.0225051 0.00301109 0)
(0.0314936 0.00398611 0)
(0.041917 0.00477599 2.70831e-22)
(0.0534012 0.00528776 0)
(0.0654356 0.00547908 3.35903e-23)
(0.0774102 0.00533977 -3.87623e-24)
(0.0886731 0.00488111 -2.4984e-22)
(0.0985864 0.00413334 -1.41415e-24)
(0.106578 0.00313993 1.61068e-22)
(0.112181 0.00195953 2.48949e-23)
(0.115069 0.000661285 0)
(0.115073 -0.000676311 0)
(0.112191 -0.00197304 4.07162e-25)
(0.106593 -0.00315061 -7.05992e-23)
(0.0986053 -0.00414026 0)
(0.088693 -0.00488385 0)
(0.0774289 -0.0053385 3.88474e-24)
(0.065451 -0.0054745 -3.7734e-24)
(0.053412 -0.00528099 2.49582e-22)
(0.0419226 -0.00476828 -2.90707e-22)
(0.0314944 -0.00397863 4.531e-24)
(0.0225021 -0.00300469 -4.2161e-24)
(0.0151033 -0.00195023 0)
(0.00944952 -0.00102601 -2.67421e-22)
(0.0053501 -0.000394476 -8.70198e-24)
(0.00194073 0.000117431 -4.41924e-22)
(0.00278194 -0.000105158 -4.73517e-22)
(0.00699843 0.000512889 -1.90894e-22)
(0.0115967 0.00115887 2.96788e-22)
(0.0179129 0.00210761 3.06821e-22)
(0.0259792 0.00312321 -4.84901e-24)
(0.0356027 0.00402286 4.00894e-24)
(0.0466086 0.00472091 -3.71521e-23)
(0.0585901 0.00513894 -2.3747e-22)
(0.0710245 0.00525144 4.94054e-22)
(0.0833003 0.0050598 -3.45953e-24)
(0.0947742 0.00458239 3.5336e-24)
(0.104824 0.00385209 8.46712e-23)
(0.112896 0.00291019 -1.41732e-22)
(0.118541 0.00180918 -2.51498e-23)
(0.121447 0.000608526 -4.91363e-24)
(0.12145 -0.000625082 -1.46219e-24)
(0.118552 -0.0018241 7.66925e-26)
(0.112912 -0.00292204 -5.27727e-23)
(0.104844 -0.00385988 -7.15103e-23)
(0.0947952 -0.00458565 0)
(0.0833203 -0.0050587 0)
(0.0710415 -0.00524673 0)
(0.0586025 -0.00513179 -2.52326e-22)
(0.0466158 -0.00471268 3.60816e-24)
(0.0356049 -0.00401482 4.08086e-24)
(0.0259772 -0.0031163 -8.43055e-24)
(0.0179081 -0.00210229 4.2381e-24)
(0.0115909 -0.00115543 4.57804e-25)
(0.00699183 -0.000510922 -3.28118e-23)
(0.00277752 0.000105836 4.68824e-22)
(0.00383682 -9.02547e-05 0)
(0.00893186 0.000625811 6.32893e-23)
(0.0140207 0.00127463 8.0379e-24)
(0.0210267 0.00223973 -3.11216e-22)
(0.0297579 0.00320198 -2.28662e-22)
(0.040005 0.004023 3.89687e-24)
(0.0515756 0.00462975 -2.49612e-22)
(0.0640324 0.00495895 4.54374e-22)
(0.0768453 0.00500016 -2.37149e-22)
(0.0894027 0.00476447 1.94885e-22)
(0.101072 0.00427576 1.76975e-24)
(0.111246 0.00356848 -8.50886e-23)
(0.11939 0.00268117 6.77323e-23)
(0.125073 0.00166036 -2.02453e-23)
(0.127993 0.000556457 5.07092e-24)
(0.127997 -0.000574578 2.36798e-24)
(0.125083 -0.00167672 3.026e-25)
(0.119406 -0.00269424 5.27596e-23)
(0.111266 -0.00357717 7.07989e-23)
(0.101094 -0.00427958 1.14424e-24)
(0.0894239 -0.00476357 2.9668e-24)
(0.0768638 -0.00499533 -2.89253e-24)
(0.0640465 -0.00495142 1.8764e-22)
(0.0515844 -0.00462097 0)
(0.0400085 -0.00401433 -2.09041e-22)
(0.0297569 -0.00319448 0)
(0.0210225 -0.00223391 2.62114e-22)
(0.0140152 -0.00127083 2.91263e-22)
(0.00892503 -0.000623659 4.05485e-23)
(0.00383188 9.1052e-05 -6.71682e-22)
(0.00513696 -7.29647e-05 -8.06496e-22)
(0.0111745 0.000731424 2.94329e-23)
(0.016742 0.00137512 -3.23292e-22)
(0.0244623 0.00234951 0)
(0.0338476 0.00324696 4.30058e-22)
(0.0447056 0.00398839 -1.98232e-22)
(0.056822 0.00450556 -6.43431e-24)
(0.0697323 0.00475177 -2.5217e-23)
(0.0829022 0.00472941 0)
(0.0957224 0.00445766 -1.9905e-22)
(0.107571 0.00396448 2.77574e-24)
(0.117859 0.00328497 -1.00786e-24)
(0.126068 0.00245458 1.39085e-24)
(0.131783 0.00151404 1.8003e-24)
(0.134716 0.000505397 -4.49011e-24)
(0.13472 -0.000525107 -9.28558e-25)
(0.131793 -0.00153186 -1.05307e-23)
(0.126084 -0.00246889 -2.56227e-25)
(0.11788 -0.0032946 0)
(0.107594 -0.00396889 0)
(0.0957448 -0.00445699 0)
(0.0829221 -0.00472446 0)
(0.0697479 -0.00474384 -1.92949e-22)
(0.0568324 -0.00449618 2.74368e-24)
(0.0447107 -0.00397903 2.16286e-22)
(0.0338479 -0.00323879 -3.00986e-24)
(0.0244589 -0.00234311 -2.69721e-22)
(0.0167368 -0.00137088 -1.17067e-24)
(0.0111676 -0.000729035 9.62172e-23)
(0.00513156 7.39101e-05 1.50609e-21)
(0.00670927 -5.42247e-05 8.52759e-22)
(0.0137424 0.000826702 -1.59234e-25)
(0.0197749 0.00145963 3.78014e-22)
(0.0282312 0.00243529 0)
(0.0382547 0.0032585 -2.04425e-22)
(0.0497101 0.00392136 2.02505e-22)
(0.0623519 0.00435158 1.62914e-22)
(0.0756936 0.00452135 -2.35639e-23)
(0.0891999 0.00444314 -1.57477e-22)
(0.102265 0.00414295 -1.53224e-22)
(0.114279 0.00365147 1.36912e-24)
(0.124669 0.00300374 1.93275e-25)
(0.132935 0.00223185 1.24159e-24)
(0.138679 0.00137102 3.4463e-23)
(0.141623 0.000455609 4.50087e-24)
(0.141627 -0.000476924 0)
(0.138689 -0.00139034 1.1007e-23)
(0.132952 -0.00224744 -2.16438e-25)
(0.12469 -0.00301435 0)
(0.114302 -0.00365649 0)
(0.102288 -0.00414253 2.18096e-24)
(0.0892211 -0.00443809 -1.32884e-22)
(0.0757109 -0.00451302 -1.36404e-22)
(0.062364 -0.00434158 -1.38631e-22)
(0.0497166 -0.00391125 2.63605e-25)
(0.0382563 -0.00324959 1.60445e-22)
(0.0282285 -0.00242823 1.84119e-22)
(0.0197702 -0.00145486 -2.80318e-26)
(0.0137355 -0.00082401 7.3924e-23)
(0.00670348 5.53575e-05 -1.78832e-21)
(0.0085795 -3.5008e-05 0)
(0.01665 0.000909333 0)
(0.023134 0.00152792 -3.9112e-22)
(0.0323435 0.00249582 2.66168e-24)
(0.0429851 0.00323776 -1.6231e-22)
(0.0550237 0.00382459 1.56913e-22)
(0.0681697 0.00417119 -1.67767e-22)
(0.0819209 0.00427159 -1.62657e-22)
(0.0957429 0.00414507 1.56935e-22)
(0.109035 0.00382359 2.03783e-23)
(0.1212 0.0033393 -1.20939e-22)
(0.131683 0.00272667 0)
(0.139999 0.00201423 0)
(0.145766 0.001232 -1.66131e-23)
(0.148719 0.000407316 0)
(0.148723 -0.000430242 3.24589e-26)
(0.145777 -0.00125282 -3.23758e-26)
(0.140015 -0.00203111 2.76692e-23)
(0.131704 -0.00273828 0)
(0.121224 -0.00334499 0)
(0.109059 -0.00382345 1.04389e-22)
(0.0957653 -0.00413995 1.30357e-22)
(0.0819396 -0.00426285 1.36156e-22)
(0.0681834 -0.00416054 1.4324e-22)
(0.0550319 -0.00381368 4.50569e-24)
(0.0429881 -0.00322802 -1.6591e-22)
(0.0323419 -0.00248801 -3.3074e-22)
(0.0231299 -0.00152252 -4.09901e-22)
(0.0166433 -0.000906257 8.74485e-23)
(0.00857342 3.63797e-05 9.85879e-22)
(0.010772 -1.62553e-05 0)
(0.0199104 0.000977744 0)
(0.0268336 0.00158004 -4.78645e-22)
(0.0368086 0.00253024 -9.86062e-23)
(0.0480449 0.00318656 3.01557e-22)
(0.0606522 0.00370095 -1.56765e-22)
(0.0742796 0.00396786 -1.14949e-22)
(0.0884184 0.00400624 1.17937e-22)
(0.102536 0.0038387 0)
(0.116037 0.00350255 1.31267e-22)
(0.12834 0.0030303 2.33512e-22)
(0.138905 0.00245542 1.39336e-25)
(0.147264 0.00180277 9.90706e-25)
(0.153051 0.00109756 -2.72807e-25)
(0.156011 0.000360703 0)
(0.156014 -0.000385235 0)
(0.153061 -0.00111988 1.49935e-25)
(0.147281 -0.00182095 -5.09695e-23)
(0.138926 -0.00246805 3.13027e-23)
(0.128364 -0.00303667 7.80112e-23)
(0.116062 -0.00350273 -1.01942e-22)
(0.102559 -0.00383351 -1.49686e-24)
(0.0884384 -0.0039971 -9.19801e-23)
(0.0742948 -0.00395653 1.80838e-24)
(0.0606619 -0.00368918 1.06844e-22)
(0.0480493 -0.0031759 -1.93148e-24)
(0.0368081 -0.00252159 1.4225e-22)
(0.0268303 -0.00157391 -3.94486e-23)
(0.0199041 -0.000974189 -2.62205e-22)
(0.0107657 1.79302e-05 0)
(0.0133096 1.18599e-06 0)
(0.023536 0.00103106 4.37293e-22)
(0.030888 0.00161618 4.91384e-22)
(0.0416349 0.00253819 1.02884e-22)
(0.0534399 0.0031073 -2.73334e-22)
(0.066601 0.00355341 1.01683e-22)
(0.0806859 0.00374504 1.98591e-23)
(0.0951906 0.00372891 -1.21153e-22)
(0.109583 0.00352724 4.14304e-26)
(0.123277 0.00318253 8.41522e-26)
(0.135704 0.00272649 -1.06879e-22)
(0.14634 0.00219138 4.15914e-23)
(0.154736 0.00159836 3.51346e-23)
(0.160538 0.000968164 -2.46428e-25)
(0.163503 0.000315919 0)
(0.163507 -0.000342046 0)
(0.160549 -0.000991983 1.21786e-25)
(0.154752 -0.00161785 2.30044e-23)
(0.146361 -0.00220506 -3.16083e-23)
(0.135728 -0.00273358 -7.84865e-23)
(0.123302 -0.00318305 0)
(0.109607 -0.00352202 7.20167e-23)
(0.0952118 -0.00371938 9.18567e-23)
(0.0807026 -0.00373302 2.7006e-24)
(0.0666123 -0.00354074 -1.09955e-22)
(0.0534458 -0.00309565 0)
(0.0416356 -0.00252861 4.90223e-24)
(0.0308856 -0.00160922 4.74923e-22)