# Wall shear stress
# Time       	patch        	min          	max          
0.000000e+00	Bottom	(0.000000e+00 0.000000e+00 0.000000e+00)	(0.000000e+00 0.000000e+00 0.000000e+00)
1.000000e-02	Bottom	(-1.934495e+01 -1.131025e+01 -8.359110e-17)	(1.977157e+01 1.129880e+01 1.262246e-16)
2.000000e-02	Bottom	(-1.943057e+01 -1.136271e+01 -8.393043e-17)	(1.986145e+01 1.135104e+01 1.267042e-16)
3.000000e-02	Bottom	(-1.943037e+01 -1.136282e+01 -8.393226e-17)	(1.986199e+01 1.135114e+01 1.267077e-16)
4.000000e-02	Bottom	(-1.943067e+01 -1.136279e+01 -8.393050e-17)	(1.986166e+01 1.135113e+01 1.267043e-16)
5.000000e-02	Bottom	(-1.943027e+01 -1.136282e+01 -8.393201e-17)	(1.986199e+01 1.135114e+01 1.267074e-16)
