/*--------------------------------*- C++ -*----------------------------------*\
| =========                 |                                                 |
| \\      /  F ield         | OpenFOAM: The Open Source CFD Toolbox           |
|  \\    /   O peration     | Version:  2.4.0                                 |
|   \\  /    A nd           | Web:      www.OpenFOAM.org                      |
|    \\/     M anipulation  |                                                 |
\*---------------------------------------------------------------------------*/
FoamFile
{
    version     2.0;
    format      ascii;
    class       volScalarField;
    location    "0.03";
    object      p;
}
// * * * * * * * * * * * * * * * * * * * * * * * * * * * * * * * * * * * * * //

dimensions      [0 2 -2 0 0 0 0];

internalField   nonuniform List<scalar> 
7200
(
5.11678e-05
-0.0819355
-0.0208912
0.310904
0.722829
1.07564
1.37488
1.64066
1.85423
1.96895
1.94007
1.74396
1.38572
0.894496
0.317641
-0.28834
-0.863376
-1.3516
-1.70659
-1.89988
-1.92679
-1.81104
-1.59731
-1.33189
-1.03304
-0.68026
-0.268038
0.064041
0.124987
0.0428721
-0.015112
-0.0914649
0.0469308
0.429357
0.821905
1.13133
1.39042
1.61685
1.78925
1.8665
1.81307
1.61248
1.27192
0.817724
0.290772
-0.260872
-0.786199
-1.23771
-1.57531
-1.77332
-1.82484
-1.74647
-1.57371
-1.34746
-1.0887
-0.779364
-0.386574
-0.00383227
0.134572
0.058098
-0.0343938
-0.0859669
0.1352
0.545275
0.902109
1.16738
1.38918
1.57876
1.71378
1.75904
1.6868
1.48583
1.1644
0.74597
0.265791
-0.235311
-0.714021
-1.13001
-1.44875
-1.64734
-1.71779
-1.67138
-1.53585
-1.34629
-1.12473
-0.859579
-0.502561
-0.0921736
0.129096
0.0774417
-0.0564856
-0.0612086
0.238455
0.652299
0.964426
1.18861
1.37698
1.53374
1.63711
1.65701
1.57154
1.37304
1.07009
0.683591
0.244168
-0.213162
-0.651236
-1.03549
-1.33595
-1.53227
-1.61607
-1.59503
-1.49107
-1.33417
-1.14596
-0.921895
-0.609633
-0.1955
0.104329
0.0995845
-0.0792687
-0.0136236
0.353874
0.749257
1.01163
1.19791
1.35554
1.48261
1.55871
1.55812
1.46341
1.26937
0.984526
0.627433
0.224779
-0.193273
-0.594675
-0.949682
-1.23222
-1.42424
-1.51741
-1.51692
-1.44017
-1.31285
-1.15528
-0.969094
-0.706625
-0.310982
0.0567145
0.122398
-0.0990922
0.0591715
0.47594
0.832893
1.04441
1.19645
1.32579
1.42614
1.47885
1.46177
1.36095
1.17289
0.9058
0.57611
0.207126
-0.17513
-0.542947
-0.870686
-1.13562
-1.32181
-1.42123
-1.4373
-1.38393
-1.28325
-1.15386
-1.00188
-0.790284
-0.433099
-0.0161164
0.142233
-0.110939
0.157558
0.59762
0.90006
1.06324
1.18499
1.2886
1.36537
1.39842
1.36844
1.26414
1.08321
0.833391
0.529206
0.191051
-0.158572
-0.49563
-0.797982
-1.04578
-1.22499
-1.328
-1.35707
-1.32338
-1.24621
-1.14247
-1.02072
-0.857471
-0.554821
-0.114536
0.154082
-0.108677
0.279404
0.711476
0.948987
1.06916
1.16445
1.24493
1.30137
1.31827
1.27855
1.17297
0.999989
0.76685
0.486356
0.176419
-0.14346
-0.45236
-0.73112
-0.962359
-1.13373
-1.23816
-1.27707
-1.25958
-1.20272
-1.12202
-1.02667
-0.906423
-0.668713
-0.236407
0.151818
-0.0853862
0.419908
0.810433
0.979363
1.06356
1.13577
1.19584
1.23515
1.23909
1.19235
1.08728
0.922817
0.705686
0.447184
0.163092
-0.129652
-0.41276
-0.669613
-0.884942
-1.0479
-1.15194
-1.19798
-1.19352
-1.1538
-1.09346
-1.02113
-0.936834
-0.767708
-0.376932
0.128528
-0.0338077
0.571704
0.888468
0.992162
1.04791
1.09989
1.14235
1.16761
1.16145
1.11001
1.00687
0.851274
0.649441
0.411344
0.15094
-0.117017
-0.376481
-0.613002
-0.813117
-0.967308
-1.06952
-1.12039
-1.12611
-1.10047
-1.05772
-1.00556
-0.949683
-0.845789
-0.528751
0.076956
0.0531121
0.725229
0.941227
0.989394
1.02357
1.05774
1.08547
1.09956
1.08582
1.03162
0.931531
0.78497
0.597699
0.378527
0.139854
-0.105443
-0.343216
-0.560874
-0.746498
-0.891733
-0.991004
-1.04474
-1.05816
-1.04374
-1.01571
-0.981322
-0.946982
-0.898606
-0.682309
-0.00995531
0.18163
0.869338
0.966494
0.973758
0.991734
1.01025
1.02621
1.03173
1.01257
0.95723
0.861039
0.723541
0.550085
0.348458
0.129731
-0.0948294
-0.312689
-0.512856
-0.684723
-0.820962
-0.916421
-0.971427
-0.99038
-0.984604
-0.968359
-0.949598
-0.931433
-0.923949
-0.826467
-0.138467
0.356622
0.992126
0.964448
0.948238
0.95333
0.958397
0.96549
0.964733
0.942003
0.886823
0.795167
0.666647
0.506257
0.320889
0.120483
-0.0850854
-0.284654
-0.468606
-0.627455
-0.75477
-0.845772
-0.900732
-0.923376
-0.923977
-0.916639
-0.911321
-0.906017
-0.921996
-0.949326
-0.313463
0.58107
1.08187
0.937666
0.915691
0.909091
0.903188
0.904156
0.89907
0.874333
0.820357
0.733685
0.613967
0.465903
0.2956
0.11203
-0.0761316
-0.25889
-0.427817
-0.574377
-0.692929
-0.779015
-0.832878
-0.857659
-0.862701
-0.861549
-0.867212
-0.873586
-0.895325
-1.03917
-0.537933
0.855667
1.12801
0.890875
0.878483
0.859611
0.845671
0.842955
0.835165
0.809714
0.757758
0.676361
0.565202
0.42874
0.272389
0.1043
-0.0678967
-0.235198
-0.390206
-0.525193
-0.635215
-0.716079
-0.768021
-0.793647
-0.801516
-0.804129
-0.817859
-0.836502
-0.848658
-1.08543
-0.812575
1.1786
1.12205
0.830479
0.838219
0.805456
0.786904
0.782516
0.773358
0.748248
0.698927
0.622971
0.520075
0.394511
0.251077
0.0972289
-0.0603168
-0.213399
-0.355519
-0.479629
-0.581406
-0.656868
-0.706262
-0.731677
-0.741048
-0.74543
-0.76382
-0.796365
-0.788395
-1.07962
-1.13558
1.54551
1.05832
0.76391
0.795606
0.747286
0.727913
0.72335
0.713915
0.689988
0.643747
0.573294
0.478327
0.36298
0.231501
0.0907584
-0.0533349
-0.193331
-0.323521
-0.437429
-0.531283
-0.601268
-0.647658
-0.672015
-0.681802
-0.686472
-0.70575
-0.753876
-0.721962
-1.01606
-1.50259
1.94967
0.934464
0.698891
0.750457
0.685961
0.66964
0.665851
0.657042
0.634947
0.592086
0.527116
0.439716
0.333933
0.213515
0.0848365
-0.0468997
-0.17485
-0.294002
-0.398355
-0.484639
-0.549153
-0.592223
-0.614867
-0.624172
-0.628193
-0.6445
-0.708841
-0.657076
-0.89238
-1.90689
2.38237
0.751655
0.642676
0.701821
0.622605
0.612884
0.610314
0.602893
0.583104
0.543805
0.484231
0.40402
0.307174
0.196985
0.0794162
-0.040965
-0.157823
-0.266766
-0.362187
-0.441271
-0.500386
-0.53994
-0.560386
-0.56845
-0.571387
-0.581191
-0.660304
-0.600984
-0.709754
-2.33975
2.8334
0.514498
0.601377
0.648239
0.558627
0.55825
0.556958
0.551576
0.53441
0.498758
0.44444
0.371029
0.282524
0.181792
0.074455
-0.0354895
-0.142133
-0.241638
-0.32872
-0.400985
-0.454826
-0.490762
-0.508683
-0.514853
-0.516655
-0.517226
-0.6068
-0.559794
-0.472775
-2.79096
3.29165
0.230631
0.579435
0.588055
0.495677
0.506112
0.505951
0.503156
0.488792
0.456795
0.407555
0.34055
0.25982
0.167826
0.0699145
-0.0304357
-0.127669
-0.218456
-0.297764
-0.363596
-0.412328
-0.444622
-0.459823
-0.463546
-0.464368
-0.45425
-0.546669
-0.537942
-0.189076
-3.24941
3.74585
-0.0899048
0.579296
0.519759
0.43555
0.456597
0.457434
0.45766
0.44616
0.417763
0.373395
0.312404
0.238912
0.154987
0.0657596
-0.0257696
-0.114336
-0.197072
-0.269141
-0.328928
-0.372746
-0.401433
-0.413835
-0.414671
-0.41465
-0.394054
-0.478396
-0.537868
0.131312
-3.7038
4.18512
-0.435477
0.601308
0.442297
0.380049
0.409603
0.411546
0.41507
0.406413
0.381513
0.341789
0.286424
0.219663
0.143186
0.0619589
-0.0214608
-0.102042
-0.177349
-0.242688
-0.296814
-0.335934
-0.361099
-0.370705
-0.368367
-0.367397
-0.338438
-0.400923
-0.559918
0.476761
-4.14326
4.5996
-0.793738
0.643851
0.355313
0.330831
0.364833
0.368438
0.375329
0.369441
0.347894
0.312573
0.262454
0.201946
0.132339
0.0584834
-0.0174813
-0.090707
-0.159165
-0.218252
-0.267096
-0.301747
-0.323515
-0.330378
-0.324784
-0.322307
-0.289054
-0.313891
-0.602468
0.834929
-4.5579
4.98084
-1.15249
0.703646
0.259289
0.28925
0.321858
0.328277
0.338339
0.335132
0.316756
0.285595
0.240351
0.185647
0.122371
0.055307
-0.0138059
-0.0802564
-0.142404
-0.19569
-0.239622
-0.270043
-0.288577
-0.292762
-0.284092
-0.278952
-0.247253
-0.217776
-0.662239
1.19362
-4.93929
5.32217
-1.50046
0.776213
0.155566
0.256227
0.280192
0.291243
0.303964
0.303376
0.287954
0.26071
0.219981
0.170659
0.113213
0.0524058
-0.0104116
-0.070622
-0.126962
-0.17487
-0.214253
-0.240678
-0.25618
-0.257725
-0.246471
-0.236843
-0.213952
-0.113917
-0.734748
1.54157
-5.28073
5.61877
-1.82789
0.856393
0.046263
0.232164
0.239372
0.257509
0.272035
0.274067
0.261342
0.237781
0.201217
0.156884
0.104802
0.0497578
-0.00727734
-0.0617415
-0.112741
-0.155669
-0.190855
-0.213515
-0.226226
-0.225105
-0.212098
-0.195517
-0.189551
-0.00442681
-0.814833
1.86901
-5.5774
5.86772
-2.12694
0.938875
-0.0659101
0.216914
0.199029
0.227226
0.242361
0.247104
0.236777
0.216682
0.183944
0.144232
0.0970795
0.0473432
-0.00438396
-0.0535577
-0.0996534
-0.137973
-0.169303
-0.188416
-0.198621
-0.194718
-0.181129
-0.154604
-0.173901
0.107989
-0.897182
2.16812
-5.82638
6.06785
-2.3919
1.01867
-0.17789
0.209808
0.158941
0.200495
0.214736
0.222394
0.214121
0.197292
0.168054
0.132621
0.0899928
0.0451436
-0.00171385
-0.046018
-0.0876163
-0.121672
-0.149481
-0.165246
-0.17328
-0.166367
-0.153671
-0.113885
-0.166328
0.220271
-0.976804
2.43317
-6.02649
6.21951
-2.61917
1.09149
-0.286531
0.209729
0.119074
0.17735
0.188957
0.199845
0.193237
0.179501
0.153445
0.121974
0.0834928
0.0431423
0.000749154
-0.0390739
-0.076554
-0.106668
-0.131279
-0.143872
-0.150117
-0.139857
-0.129766
-0.0733278
-0.165717
0.329279
-1.0494
2.66057
-6.17809
6.32431
-2.80707
1.15397
-0.388865
0.215235
0.0795808
0.157736
0.16483
0.179368
0.173995
0.163205
0.140023
0.112221
0.0775342
0.0413238
0.00301989
-0.032681
-0.0663963
-0.0928656
-0.114594
-0.124168
-0.129053
-0.115006
-0.109366
-0.0330907
-0.170623
0.432048
-1.11161
2.84867
-6.28277
6.38484
-2.95564
1.20382
-0.482317
0.224695
0.0407904
0.141501
0.142189
0.160875
0.156268
0.148308
0.1277
0.103296
0.0720756
0.0396739
0.00511206
-0.0267981
-0.0570784
-0.0801773
-0.0993296
-0.106011
-0.110003
-0.0916547
-0.0923314
0.00649138
-0.179419
0.526008
-1.16114
2.99746
-6.34314
6.40436
-3.06621
1.23977
-0.564868
0.236439
0.00316623
0.128402
0.120899
0.144271
0.139938
0.134717
0.116394
0.0951396
0.0670786
0.0381796
0.0070383
-0.0213871
-0.0485399
-0.0685211
-0.0853956
-0.0892835
-0.0928788
-0.0696787
-0.0784283
0.0449462
-0.190438
0.609141
-1.19671
3.10832
-6.36243
6.38655
-3.14111
1.26151
-0.635138
0.248886
-0.0327446
0.118106
0.100863
0.129455
0.124896
0.122348
0.10603
0.0876952
0.0625078
0.0368288
0.00881032
-0.0164131
-0.0407251
-0.0578208
-0.0727055
-0.0738776
-0.0775835
-0.0489905
-0.0673387
0.0817162
-0.202104
0.680069
-1.21801
3.18358
-6.34436
6.33534
-3.18334
1.2695
-0.692407
0.260651
-0.0663698
0.11022
0.0820251
0.116316
0.111043
0.111119
0.0965354
0.0809111
0.0583306
0.0356102
0.010439
-0.0118438
-0.0335821
-0.0480051
-0.0611774
-0.0596935
-0.0640098
-0.0295417
-0.0586789
0.116217
-0.213042
0.738068
-1.2255
3.22622
-6.29283
6.25471
-3.19624
1.26478
-0.736568
0.27062
-0.0971681
0.104305
0.064365
0.104733
0.0982888
0.100952
0.0878464
0.0747388
0.0545171
0.0345136
0.0119345
-0.00764908
-0.0270623
-0.0390084
-0.0507325
-0.0466416
-0.0520392
-0.0113197
-0.0520232
0.147894
-0.222148
0.783027
-1.22021
3.23961
-6.21181
6.14857
-3.18333
1.24877
-0.768042
0.277988
-0.124678
0.0999082
0.0478944
0.0945783
0.086556
0.0917735
0.0799026
0.0691332
0.0510394
0.0335293
0.0133062
-0.00380152
-0.0211206
-0.0307698
-0.041295
-0.0346425
-0.0415429
0.00565862
-0.0469309
0.17627
-0.22863
0.81536
-1.20356
3.22725
-6.10524
6.02072
-3.14808
1.22311
-0.787666
0.28226
-0.148553
0.0965903
0.0326467
0.0857133
0.0757776
0.0835109
0.0726486
0.0640521
0.0478721
0.0326483
0.0145629
-0.00027565
-0.0157146
-0.0232336
-0.0327912
-0.0236271
-0.032383
0.0213561
-0.0429717
0.200985
-0.232005
0.835893
-1.1772
3.19263
-5.97688
5.87473
-3.09388
1.18948
-0.796566
0.283225
-0.168581
0.0939467
0.0186678
0.0779967
0.0658967
0.0760942
0.0660339
0.0594559
0.0449917
0.0318623
0.0157131
0.002952
-0.0108045
-0.0163484
-0.0251495
-0.0135361
-0.024416
0.0357249
-0.0397496
0.221813
-0.232081
0.845741
-1.14281
3.13913
-5.83033
5.71396
-3.02388
1.14952
-0.796047
0.280921
-0.184693
0.0916271
0.00600551
0.0712861
0.0568657
0.0694555
0.0600126
0.0553073
0.0423765
0.0311633
0.0167645
0.00590303
-0.00635307
-0.0100676
-0.0183004
-0.00431901
-0.0174965
0.0487175
-0.0369202
0.238671
-0.22891
0.846189
-1.10205
3.0699
-5.66893
5.5415
-2.94104
1.10478
-0.787482
0.275572
-0.196953
0.0893475
-0.00529973
0.065442
0.0486445
0.0635289
0.0545426
0.0515715
0.0400068
0.030544
0.0177244
0.00859732
-0.00232501
-0.00434867
-0.0121764
0.00406708
-0.0114812
0.0602948
-0.0342031
0.25161
-0.222735
0.838596
-1.05647
2.98789
-5.49578
5.36016
-2.84803
1.05663
-0.77224
0.26754
-0.205541
0.0868957
-0.0152222
0.060332
0.0411986
0.0582506
0.0495858
0.0482154
0.0378642
0.0299976
0.0185997
0.0110532
0.00131271
0.000847024
-0.00671237
0.0116595
-0.00623356
0.0704347
-0.0313874
0.260804
-0.21393
0.82431
-1.00745
2.89578
-5.3137
5.17249
-2.74729
1.00627
-0.751619
0.257266
-0.210729
0.0841309
-0.0237564
0.055834
0.0344977
0.0535595
0.0451074
0.0452082
0.0359322
0.0295175
0.0193971
0.0132874
0.00459131
0.00555466
-0.00184594
0.0184914
-0.00162697
0.0791362
-0.0283309
0.266518
-0.202951
0.804612
-0.956227
2.79597
-5.12523
4.98072
-2.64097
0.954751
-0.726813
0.245226
-0.212859
0.080978
-0.03092
0.0518393
0.0285135
0.0493977
0.041076
0.0425205
0.0341952
0.0290977
0.0201228
0.0153154
0.00754012
0.0098063
0.0024821
0.0245938
0.00245204
0.0864225
-0.0249546
0.269089
-0.190285
0.780677
-0.903844
2.69062
-4.93263
4.78682
-2.531
0.902932
-0.698884
0.231896
-0.212309
0.0774188
-0.0367543
0.0482542
0.023218
0.0457105
0.0374623
0.0401251
0.0326393
0.0287324
0.0207825
0.0171515
0.0101866
0.0136313
0.0063273
0.0299967
0.00610167
0.0923408
-0.0212351
0.268898
-0.176414
0.753552
-0.851194
2.58161
-4.73786
4.59244
-2.41902
0.851537
-0.66876
0.217727
-0.209475
0.0734805
-0.0413224
0.0450006
0.0185828
0.0424471
0.0342397
0.0379965
0.0312515
0.0284164
0.0213817
0.0188088
0.0125566
0.0170568
0.00974121
0.0347306
0.00940399
0.0969609
-0.0171925
0.266342
-0.161792
0.724152
-0.799014
2.47059
-4.5426
4.399
-2.30643
0.801151
-0.637231
0.203121
-0.20475
0.0692238
-0.044707
0.0420167
0.0145774
0.0395611
0.0313831
0.0361109
0.0300197
0.0281446
0.0219256
0.0202994
0.0146741
0.020108
0.012771
0.0388274
0.0124247
0.100371
-0.0128799
0.261819
-0.146823
0.693258
-0.747903
2.35894
-4.34829
4.20766
-2.19442
0.752234
-0.604959
0.18843
-0.198506
0.0647314
-0.0470055
0.0392552
0.0111693
0.0370103
0.0288692
0.0344461
0.0289331
0.0279126
0.0224189
0.0216345
0.0165613
0.0228085
0.0154591
0.0423212
0.0152141
0.102675
-0.00837163
0.25571
-0.131855
0.661525
-0.698335
2.24781
-4.15608
4.01933
-2.08393
0.70514
-0.572485
0.173945
-0.191087
0.0600974
-0.0483256
0.0366828
0.00832325
0.0347573
0.0266757
0.0329819
0.0279813
0.0277161
0.0228661
0.0228247
0.0182387
0.0251808
0.0178436
0.0452479
0.0178081
0.103985
-0.00375391
0.248367
-0.117174
0.629495
-0.65067
2.13815
-3.96693
3.83473
-1.97572
0.660123
-0.540244
0.159901
-0.182799
0.0554187
-0.0487812
0.0342775
0.00600204
0.0327691
0.0247815
0.0316997
0.0271548
0.0275511
0.0232713
0.0238795
0.0197253
0.0272462
0.0199576
0.0476455
0.0202309
0.10442
0.000884033
0.240105
-0.103006
0.597604
-0.605169
2.0307
-3.78157
3.6544
-1.87037
0.617358
-0.508576
0.14648
-0.173909
0.050788
-0.0484873
0.0320267
0.00416633
0.0310173
0.0231662
0.0305825
0.0264449
0.0274143
0.0236382
0.0248082
0.0210381
0.0290254
0.0218299
0.0495539
0.0224965
0.104098
0.00545625
0.2312
-0.0895234
0.566199
-0.562007
1.92602
-3.60053
3.47871
-1.76831
0.576945
-0.47774
0.133813
-0.164644
0.0462891
-0.0475566
0.0299253
0.0027756
0.0294774
0.0218101
0.029615
0.0258432
0.0273024
0.0239703
0.0256192
0.0221928
0.0305381
0.0234851
0.0510138
0.0246111
0.103134
0.00988492
0.221887
-0.0768468
0.535545
-0.521283
1.82453
-3.42423
3.30792
-1.66981
0.538925
-0.447924
0.121989
-0.155191
0.0419936
-0.0460964
0.0279733
0.00178873
0.0281289
0.0206942
0.0287836
0.025342
0.0272126
0.0242707
0.0263205
0.0232031
0.0318036
0.0249439
0.0520667
0.0265756
0.101639
0.0141033
0.212364
-0.0650549
0.50584
-0.483029
1.72652
-3.2529
3.14216
-1.57504
0.503286
-0.419256
0.11106
-0.145703
0.0379594
-0.0442062
0.0261739
0.00116475
0.0269548
0.0198001
0.0280759
0.024934
0.0271424
0.0245421
0.0269197
0.0240817
0.0328403
0.0262234
0.0527537
0.0283872
0.0997133
0.0180573
0.202789
-0.0541899
0.477225
-0.44723
1.63215
-3.08668
2.98146
-1.48408
0.469978
-0.391819
0.101047
-0.1363
0.0342299
-0.0419764
0.0245321
0.000863668
0.025941
0.0191103
0.0274813
0.0246122
0.0270897
0.0247869
0.0274239
0.0248395
0.0336663
0.0273379
0.0531147
0.0300412
0.0974481
0.0217063
0.193288
-0.0442642
0.44979
-0.413824
1.5415
-2.92562
2.8258
-1.39693
0.438919
-0.365653
0.0919467
-0.127074
0.0308353
-0.0394868
0.023053
0.000847061
0.0250758
0.0186076
0.0269903
0.0243704
0.0270527
0.0250073
0.0278397
0.0254861
0.0342986
0.0282991
0.0531884
0.0315325
0.0949242
0.0250226
0.183958
-0.0352662
0.423588
-0.382718
1.45458
-2.76967
2.67508
-1.31352
0.409998
-0.340766
0.0837356
-0.118094
0.0277927
-0.0368071
0.0217414
0.00107862
0.02435
0.0182761
0.0265947
0.0242025
0.0270298
0.0252051
0.0281735
0.02603
0.0347535
0.0291164
0.053011
0.0328563
0.0922116
0.0279899
0.174873
-0.027166
0.398635
-0.353793
1.37133
-2.61873
2.52914
-1.23373
0.383092
-0.317145
0.0763749
-0.109409
0.0251087
-0.0339965
0.0206009
0.00152476
0.023756
0.0181005
0.0262875
0.0241029
0.0270197
0.0253817
0.0284312
0.0264786
0.0350464
0.0297977
0.0526163
0.0340092
0.0893695
0.0306029
0.166082
-0.0199197
0.374927
-0.326915
1.29164
-2.47265
2.38782
-1.15741
0.358059
-0.294756
0.0698143
-0.10105
0.0227801
-0.0311045
0.0196331
0.00215479
0.0232874
0.0180666
0.0260627
0.0240663
0.0270215
0.0255386
0.0286182
0.026838
0.0351917
0.0303493
0.0520348
0.0349892
0.0864476
0.0328651
0.15762
-0.0134731
0.352435
-0.301935
1.21537
-2.33124
2.25089
-1.08438
0.334754
-0.273551
0.0639958
-0.0930375
0.0207964
-0.0281714
0.0188382
0.00294122
0.0229392
0.0181614
0.0259152
0.0240881
0.0270343
0.0256767
0.0287395
0.0271135
0.0352027
0.0307764
0.0512943
0.0357963
0.0834862
0.0347871
0.149508
-0.00776543
0.331118
-0.278698
1.14235
-2.19428
2.11813
-1.01446
0.313023
-0.253474
0.058856
-0.0853806
0.0191411
-0.0252295
0.0182144
0.00385989
0.0227073
0.0183729
0.0258408
0.0241637
0.0270577
0.025797
0.0287999
0.0273095
0.0350915
0.0310833
0.0504188
0.036432
0.0805175
0.0363853
0.141756
-0.00273133
0.310923
-0.257045
1.07239
-2.06152
1.98929
-0.947416
0.292714
-0.234464
0.0543287
-0.0780808
0.0177935
-0.0223039
0.0177585
0.00488991
0.0225881
0.0186906
0.0258362
0.0242892
0.0270912
0.0258999
0.0288035
0.0274297
0.034869
0.0312735
0.0494295
0.0368994
0.0775663
0.0376804
0.134365
0.00169665
0.291793
-0.236819
1.00529
-1.93272
1.86411
-0.883049
0.273673
-0.216454
0.0503463
-0.0711343
0.0167298
-0.0194135
0.017466
0.00601368
0.0225788
0.0191049
0.0258987
0.0244612
0.0271348
0.025986
0.0287542
0.0274769
0.0345447
0.0313501
0.0483439
0.0372032
0.0746516
0.0386956
0.127333
0.00558668
0.273664
-0.217861
0.940839
-1.8076
1.74235
-0.821139
0.255749
-0.199382
0.0468415
-0.0645332
0.0159248
-0.0165719
0.0173314
0.00721676
0.0226772
0.0196078
0.0260262
0.0246767
0.0271883
0.0260555
0.0286551
0.0274534
0.034127
0.0313155
0.0471765
0.0373485
0.0717866
0.0394561
0.12065
0.00900619
0.256472
-0.200019
0.878833
-1.6859
1.62373
-0.761476
0.238798
-0.183183
0.0437486
-0.0582674
0.0153526
-0.0137882
0.0173488
0.00848769
0.0228816
0.0201927
0.0262175
0.0249329
0.0272519
0.0261086
0.0285092
0.0273607
0.0336226
0.0311713
0.0459389
0.0373411
0.0689804
0.0399872
0.114307
0.0120209
0.240156
-0.183143
0.81906
-1.56737
1.50803
-0.703856
0.222677
-0.167799
0.0410041
-0.0523256
0.0149877
-0.0110679
0.0175123
0.00981784
0.0231909
0.0208541
0.0264716
0.0252278
0.0273259
0.0261452
0.0283187
0.0271999
0.0330371
0.0309188
0.0446398
0.037187
0.0662383
0.0403141
0.108292
0.0146941
0.224658
-0.167092
0.761324
-1.45175
1.39499
-0.648093
0.207254
-0.153178
0.0385477
-0.0466964
0.0148058
-0.00841327
0.0178162
0.0112013
0.0236044
0.0215882
0.0267885
0.0255598
0.0274106
0.0261654
0.0280857
0.0269713
0.0323747
0.0305587
0.043285
0.0368918
0.0635625
0.0404607
0.102593
0.0170856
0.209926
-0.151731
0.705438
-1.3388
1.2844
-0.59402
0.192404
-0.139275
0.0363232
-0.041369
0.0147844
-0.00582408
0.0182556
0.0126346
0.0241227
0.022392
0.0271685
0.0259277
0.0275065
0.0261687
0.0278113
0.0266748
0.0316383
0.0300906
0.0418782
0.03646
0.0609523
0.0404489
0.0971985
0.0192511
0.195914
-0.136934
0.651238
-1.2283
1.17608
-0.541496
0.178013
-0.126057
0.0342791
-0.0363342
0.0149039
-0.00329793
0.0188269
0.0141166
0.0247467
0.0232645
0.0276126
0.026331
0.0276142
0.026155
0.0274966
0.0263095
0.0308293
0.0295136
0.0404204
0.0358953
0.0584054
0.0402982
0.0920993
0.0212415
0.182591
-0.122589
0.598587
-1.12005
1.06987
-0.490423
0.163983
-0.113505
0.03237
-0.0315846
0.0151476
-0.000830484
0.0195281
0.0156484
0.0254784
0.0242054
0.0281223
0.0267694
0.0277343
0.0261237
0.0271418
0.0258743
0.0299479
0.0288257
0.0389107
0.0351996
0.0559171
0.0400247
0.0872876
0.0231016
0.169935
-0.108596
0.547386
-1.01391
0.965671
-0.440754
0.150234
-0.101616
0.0305576
-0.0271155
0.0155028
0.00158423
0.0203589
0.0172331
0.0263212
0.0252161
0.0286997
0.0272433
0.0278677
0.0260744
0.0267469
0.025367
0.0289931
0.0280238
0.0373457
0.0343729
0.0534813
0.0396407
0.082758
0.0248691
0.157946
-0.0948753
0.497589
-0.909783
0.863481
-0.392515
0.136712
-0.0904087
0.0288119
-0.022925
0.0159612
0.00395374
0.0213217
0.018876
0.0272793
0.026299
0.0293477
0.0277537
0.0280152
0.0260064
0.0263111
0.0247851
0.0279625
0.0271035
0.0357205
0.0334128
0.0510902
0.0391539
0.0785085
0.0265731
0.14664
-0.0813741
0.449225
-0.807648
0.763401
-0.345835
0.123396
-0.0799265
0.0271135
-0.0190145
0.0165197
0.00628722
0.0224212
0.0205843
0.0283584
0.0274579
0.0300696
0.0283018
0.0281779
0.0259189
0.0258335
0.0241253
0.0268525
0.0260593
0.0340277
0.0323143
0.0487344
0.038567
0.0745399
0.0282323
0.136063
-0.0680717
0.402424
-0.707615
0.66571
-0.300983
0.110307
-0.0702431
0.0254547
-0.0153881
0.0171809
0.00859559
0.0236653
0.022367
0.029566
0.0286979
0.0308699
0.0288896
0.0283568
0.0258112
0.0253123
0.0233836
0.0256582
0.0248838
0.0322581
0.0310693
0.0464028
0.0378767
0.0708561
0.0298535
0.126287
-0.054991
0.357456
-0.609962
0.570939
-0.258423
0.0975222
-0.0614658
0.0238419
-0.0120527
0.0179539
0.0108915
0.0250651
0.0242352
0.0309106
0.0300251
0.0317532
0.0295194
0.0285531
0.0256822
0.0247454
0.0225554
0.0243736
0.0235683
0.0304009
0.0296665
0.0440824
0.0370735
0.0674636
0.031429
0.11742
-0.0422114
0.314787
-0.515219
0.479978
-0.21886
0.0851845
-0.0537332
0.0222952
-0.00901651
0.0188524
0.0131884
0.026633
0.0261999
0.0324011
0.0314454
0.032724
0.0301933
0.028768
0.0255311
0.024131
0.0216363
0.022993
0.0221044
0.0284449
0.0280935
0.0417596
0.0361431
0.0643704
0.0329376
0.109601
-0.0298769
0.275124
-0.424279
0.394153
-0.183243
0.0734518
-0.0471875
0.0208336
-0.00627944
0.0198913
0.0155044
0.0283824
0.028275
0.0340468
0.0329662
0.0337873
0.0309142
0.0290023
0.0253572
0.0234664
0.0206217
0.021509
0.0204824
0.0263763
0.0263365
0.0394161
0.0350701
0.0615759
0.0343595
0.102973
-0.0181479
0.239421
-0.338466
0.315313
-0.152954
0.0624298
-0.0419682
0.0194713
-0.00381669
0.0211086
0.0178896
0.0303584
0.0305055
0.0358848
0.0346182
0.0349651
0.0316958
0.0292608
0.0251565
0.0227385
0.0194901
0.0198916
0.0186658
0.0241501
0.0243505
0.0370011
0.0338154
0.0590542
0.0356786
0.0976755
-0.00713263
0.209062
-0.25963
0.247723
-0.131499
0.052841
-0.0385628
0.0184166
-0.00165923
0.022657
0.0204262
0.032695
0.0329866
0.0380175
0.0364721
0.0363172
0.0325699
0.0295579
0.0249167
0.0219175
0.0181833
0.0180713
0.0165529
0.0216714
0.0220003
0.0344315
0.0322241
0.0568346
0.0366821
0.0941941
0.00243973
0.187561
-0.192037
0.204002
-0.128496
0.0497585
-0.0391933
0.0189621
-0.000425804
0.0248385
0.0228338
0.0353955
0.0355227
0.040368
0.0383895
0.0377795
0.0334678
0.0298868
0.0246431
0.021071
0.0167646
0.0161865
0.0142201
0.0191374
0.019283
0.0319913
0.0299924
0.0555428
0.0360702
0.0947649
0.00547814
0.184548
-0.148312
-0.000170701
-0.0822727
-0.0213621
0.310493
0.722456
1.07528
1.37453
1.64032
1.8539
1.96864
1.93979
1.74373
1.38553
0.894339
0.317496
-0.288487
-0.863538
-1.35179
-1.70681
-1.90015
-1.92709
-1.81137
-1.59765
-1.33225
-1.0334
-0.680623
-0.2684
0.0636797
0.124626
0.0425093
-0.0153982
-0.0918627
0.0464705
0.428963
0.821539
1.13097
1.39007
1.61651
1.78892
1.86618
1.81279
1.61225
1.27174
0.817568
0.290628
-0.261019
-0.78636
-1.2379
-1.57553
-1.77358
-1.82514
-1.7468
-1.57406
-1.34782
-1.08906
-0.779726
-0.386937
-0.00419418
0.13421
0.0577358
-0.034746
-0.0863988
0.134765
0.544894
0.901749
1.16702
1.38883
1.57841
1.71344
1.75873
1.68653
1.48561
1.16422
0.745817
0.265648
-0.235456
-0.714179
-1.13019
-1.44896
-1.64759
-1.71808
-1.6717
-1.53619
-1.34664
-1.12509
-0.859941
-0.502923
-0.0925361
0.128734
0.0770802
-0.0568951
-0.0616496
0.238045
0.651925
0.964069
1.18826
1.37662
1.53339
1.63677
1.6567
1.57128
1.37282
1.06991
0.683441
0.244027
-0.213306
-0.651392
-1.03566
-1.33616
-1.53252
-1.61635
-1.59535
-1.49141
-1.33452
-1.14632
-0.922257
-0.609996
-0.195862
0.103967
0.0992235
-0.0797146
-0.0140533
0.353486
0.748888
1.01127
1.19756
1.35518
1.48226
1.55837
1.55782
1.46315
1.26916
0.984356
0.627286
0.22464
-0.193415
-0.594829
-0.949857
-1.23242
-1.42448
-1.51769
-1.51723
-1.44051
-1.3132
-1.15564
-0.969455
-0.706988
-0.311345
0.0563524
0.122037
-0.0995539
0.0587614
0.475568
0.832526
1.04405
1.19609
1.32544
1.42579
1.47852
1.46148
1.3607
1.17268
0.905635
0.575967
0.206989
-0.17527
-0.543098
-0.870858
-1.13582
-1.32205
-1.42151
-1.43761
-1.38427
-1.2836
-1.15422
-1.00224
-0.790647
-0.433462
-0.0164785
0.141872
-0.111401
0.157168
0.597259
0.899693
1.06288
1.18463
1.28824
1.36502
1.39809
1.36815
1.2639
1.08301
0.833233
0.529066
0.190918
-0.158709
-0.495778
-0.79815
-1.04598
-1.22522
-1.32827
-1.35738
-1.32371
-1.24656
-1.14282
-1.02108
-0.857833
-0.555184
-0.114898
0.153721
-0.10913
0.279028
0.711121
0.948622
1.0688
1.16409
1.24457
1.30102
1.31794
1.27826
1.17274
0.999803
0.766697
0.486221
0.176289
-0.143594
-0.452506
-0.731285
-0.96255
-1.13396
-1.23842
-1.27737
-1.2599
-1.20307
-1.12238
-1.02703
-0.906784
-0.669075
-0.236769
0.151457
-0.0858271
0.419541
0.810081
0.978998
1.0632
1.13541
1.19548
1.2348
1.23876
1.19207
1.08705
0.922639
0.70554
0.447054
0.162965
-0.129783
-0.412902
-0.669774
-0.885129
-1.04813
-1.1522
-1.19828
-1.19384
-1.15414
-1.09381
-1.02149
-0.937194
-0.768069
-0.377293
0.128167
-0.0342374
0.571342
0.888118
0.991797
1.04754
1.09953
1.14198
1.16725
1.16113
1.10974
1.00665
0.851103
0.649301
0.411218
0.150818
-0.117145
-0.37662
-0.613159
-0.813299
-0.967523
-1.06978
-1.12068
-1.12643
-1.10081
-1.05807
-1.00591
-0.950042
-0.846149
-0.529112
0.0765948
0.0526904
0.724869
0.940878
0.989029
1.02321
1.05737
1.08511
1.09921
1.0855
1.03136
0.931323
0.784808
0.597565
0.378406
0.139735
-0.105568
-0.343351
-0.561027
-0.746675
-0.891943
-0.991251
-1.04503
-1.05848
-1.04408
-1.01606
-0.981679
-0.947341
-0.898966
-0.682669
-0.0103163
0.181212
0.868979
0.966145
0.973393
0.991366
1.00988
1.02585
1.03139
1.01226
0.956977
0.860842
0.723388
0.549958
0.348342
0.129616
-0.0949501
-0.312821
-0.513005
-0.684896
-0.821166
-0.916662
-0.971706
-0.990691
-0.984938
-0.968708
-0.949954
-0.931791
-0.924308
-0.826827
-0.138828
0.356206
0.991769
0.964099
0.947873
0.952961
0.958026
0.965125
0.96439
0.941704
0.886579
0.79498
0.666502
0.506136
0.320779
0.120372
-0.0852023
-0.284782
-0.468751
-0.627623
-0.754968
-0.846007
-0.901006
-0.923682
-0.924308
-0.916986
-0.911675
-0.906374
-0.922355
-0.949685
-0.313824
0.580653
1.08152
0.937317
0.915326
0.908721
0.902816
0.903792
0.898731
0.874041
0.820124
0.733508
0.613831
0.465789
0.295494
0.111924
-0.0762447
-0.259014
-0.427957
-0.57454
-0.693122
-0.779244
-0.833146
-0.857961
-0.863029
-0.861894
-0.867566
-0.873943
-0.895682
-1.03953
-0.538292
0.855248
1.12766
0.890525
0.878117
0.859239
0.845298
0.842593
0.834833
0.809432
0.757537
0.676195
0.565075
0.428634
0.272289
0.104198
-0.0680058
-0.235318
-0.390343
-0.525351
-0.635403
-0.716302
-0.768282
-0.793944
-0.801841
-0.804472
-0.818211
-0.836858
-0.849015
-1.08579
-0.812934
1.17818
1.12171
0.830127
0.837852
0.805083
0.786531
0.782158
0.773034
0.747977
0.698718
0.622817
0.519957
0.394412
0.250982
0.0971314
-0.0604219
-0.213515
-0.355651
-0.479782
-0.581587
-0.657085
-0.706518
-0.731969
-0.741369
-0.74577
-0.764172
-0.796721
-0.788752
-1.07998
-1.13594
1.54508
1.05798
0.763555
0.795238
0.746913
0.727541
0.722996
0.713599
0.689728
0.64355
0.573151
0.478218
0.362888
0.231412
0.0906654
-0.0534359
-0.193444
-0.323649
-0.437577
-0.53146
-0.601479
-0.647907
-0.672301
-0.68212
-0.68681
-0.7061
-0.754231
-0.722319
-1.01641
-1.50295
1.94925
0.934133
0.698532
0.750088
0.685587
0.669269
0.665502
0.656736
0.6347
0.591903
0.526985
0.439617
0.333847
0.213431
0.0847481
-0.0469965
-0.174958
-0.294125
-0.398499
-0.48481
-0.549357
-0.592466
-0.615148
-0.624485
-0.628529
-0.644849
-0.709195
-0.657432
-0.892737
-1.90725
2.38196
0.75133
0.642313
0.701452
0.622231
0.612516
0.609972
0.602598
0.582871
0.543636
0.484111
0.403929
0.307095
0.196907
0.0793323
-0.0410578
-0.157928
-0.266886
-0.362326
-0.441435
-0.500584
-0.540176
-0.560661
-0.568759
-0.57172
-0.581538
-0.660658
-0.601341
-0.710111
-2.34011
2.83298
0.514177
0.601009
0.647869
0.558253
0.557886
0.556625
0.551293
0.534192
0.498604
0.444332
0.370947
0.282452
0.181719
0.0743757
-0.0355781
-0.142233
-0.241753
-0.328855
-0.401144
-0.455017
-0.490992
-0.508952
-0.515157
-0.516985
-0.517572
-0.607153
-0.56015
-0.473132
-2.79131
3.29125
0.230313
0.579063
0.587685
0.495304
0.505752
0.505627
0.502888
0.48859
0.456654
0.407459
0.340477
0.259754
0.167758
0.0698396
-0.0305201
-0.127766
-0.218567
-0.297893
-0.363749
-0.412513
-0.444845
-0.460086
-0.463845
-0.464694
-0.454594
-0.547021
-0.538298
-0.189433
-3.24976
3.74545
-0.0902227
0.578919
0.51939
0.435178
0.456244
0.457121
0.457406
0.445975
0.417638
0.373311
0.312339
0.238853
0.154924
0.0656891
-0.02585
-0.114428
-0.197178
-0.269266
-0.329076
-0.372925
-0.401649
-0.414091
-0.414964
-0.414973
-0.394395
-0.478747
-0.538223
0.130955
-3.70416
4.18473
-0.435796
0.600928
0.44193
0.37968
0.409257
0.411245
0.414832
0.406245
0.381402