/*--------------------------------*- C++ -*----------------------------------*\
| =========                 |                                                 |
| \\      /  F ield         | OpenFOAM: The Open Source CFD Toolbox           |
|  \\    /   O peration     | Version:  2.4.0                                 |
|   \\  /    A nd           | Web:      www.OpenFOAM.org                      |
|    \\/     M anipulation  |                                                 |
\*---------------------------------------------------------------------------*/
FoamFile
{
    version     2.0;
    format      ascii;
    class       surfaceScalarField;
    location    "0.03";
    object      phi;
}
// * * * * * * * * * * * * * * * * * * * * * * * * * * * * * * * * * * * * * //

dimensions      [0 3 -1 0 0 0 0];

internalField   nonuniform List<scalar> 
14230
(
4.98494e-16
-1.94829e-16
-1.87431e-15
2.37284e-15
-1.31366e-14
1.12623e-14
-2.61233e-14
1.29869e-14
-2.44528e-14
-1.67043e-15
1.27306e-14
-3.71833e-14
1.08646e-13
-9.5915e-14
2.84687e-13
-1.76041e-13
5.5179e-13
-2.67103e-13
9.0058e-13
-3.4879e-13
1.29811e-12
-3.9753e-13
1.69339e-12
-3.95279e-13
2.02896e-12
-3.35569e-13
2.25339e-12
-2.2443e-13
2.33167e-12
-7.82812e-14
2.25156e-12
8.01078e-14
2.02579e-12
2.2577e-13
1.68967e-12
3.36121e-13
1.29465e-12
3.95021e-13
8.9794e-13
3.96706e-13
5.50162e-13
3.47778e-13
2.83915e-13
2.66246e-13
1.08397e-13
1.75518e-13
1.26928e-14
9.57045e-14
-2.44535e-14
3.71463e-14
-2.61307e-14
1.67715e-15
-1.31425e-14
-1.29881e-14
-1.87369e-15
-1.12688e-14
4.9942e-16
-2.37307e-15
1.91545e-16
3.0789e-16
-1.33964e-16
7.09243e-16
-1.00069e-14
1.22459e-14
-3.47692e-14
3.60248e-14
-5.18853e-14
3.01031e-14
-1.13254e-14
-4.22302e-14
1.50438e-13
-1.98946e-13
4.94207e-13
-4.39684e-13
1.06542e-12
-7.47251e-13
1.87471e-12
-1.0764e-12
2.87974e-12
-1.35382e-12
3.98388e-12
-1.50168e-12
5.05347e-12
-1.46487e-12
5.94554e-12
-1.22764e-12
6.5357e-12
-8.14592e-13
6.74051e-12
-2.83092e-13
6.53101e-12
2.89614e-13
5.93729e-12
8.19485e-13
5.04356e-12
1.22985e-12
3.97433e-12
1.46425e-12
2.87209e-12
1.49895e-12
1.86964e-12
1.35023e-12
1.06271e-12
1.07317e-12
4.93128e-13
7.45105e-13
1.50156e-13
4.38676e-13
-1.13621e-14
1.98665e-13
-5.18934e-14
4.22085e-14
-3.47778e-14
-3.01037e-14
-1.0009e-14
-3.60375e-14
-1.3337e-16
-1.22487e-14
-7.11536e-16
7.69731e-16
-2.61223e-15
4.03599e-15
-2.35663e-14
3.32e-14
-6.08157e-14
7.32743e-14
-6.32268e-14
3.25143e-14
5.93211e-14
-1.64778e-13
4.04327e-13
-5.43952e-13
1.05496e-12
-1.09031e-12
2.06294e-12
-1.75524e-12
3.4211e-12
-2.43455e-12
5.04457e-12
-2.97729e-12
6.77751e-12
-3.23461e-12
8.4213e-12
-3.10866e-12
9.77248e-12
-2.57882e-12
1.06583e-11
-1.70044e-12
1.09645e-11
-5.8923e-13
1.06514e-11
6.0266e-13
9.76021e-12
1.7107e-12
8.40628e-12
2.58377e-12
6.76263e-12
3.1079e-12
5.03218e-12
3.2294e-12
3.41241e-12
2.97e-12
2.05794e-12
2.42764e-12
1.05271e-12
1.75034e-12
4.03604e-13
1.08778e-12
5.91797e-14
5.43089e-13
-6.32473e-14
1.64636e-13
-6.08278e-14
-3.25232e-14
-2.35703e-14
-7.32948e-14
-2.61105e-15
-3.32079e-14
-4.03683e-15
7.14266e-16
-8.13216e-15
1.18262e-14
-4.30106e-14
6.80785e-14
-8.37372e-14
1.14001e-13
-4.06761e-14
-1.05467e-14
2.12823e-13
-4.18277e-13
7.9659e-13
-1.12772e-12
1.80298e-12
-2.0967e-12
3.27503e-12
-3.22729e-12
5.17512e-12
-4.33464e-12
7.37224e-12
-5.17441e-12
9.65893e-12
-5.52131e-12
1.1788e-11
-5.23778e-12
1.35157e-11
-4.30646e-12
1.46392e-11
-2.824e-12
1.50261e-11
-9.76064e-13
1.46307e-11
9.98064e-13
1.35003e-11
2.84105e-12
1.17689e-11
4.31517e-12
9.63951e-12
5.23731e-12
7.3555e-12
5.51342e-12
5.16282e-12
5.16267e-12
3.26747e-12
4.32299e-12
1.79924e-12
3.21857e-12
7.95207e-13
2.09181e-12
2.12481e-13
1.12582e-12
-4.07315e-14
4.17848e-13
-8.37543e-14
1.04998e-14
-4.3018e-14
-1.14031e-13
-8.13173e-15
-6.80941e-14
-1.18264e-14
-3.42117e-16
-1.78437e-14
2.63197e-14
-6.63499e-14
1.16585e-13
-9.32668e-14
1.40918e-13
3.35401e-14
-1.37353e-13
4.68731e-13
-8.53468e-13
1.34253e-12
-2.00152e-12
2.74425e-12
-3.49843e-12
4.69562e-12
-5.17866e-12
7.12054e-12
-6.75955e-12
9.8426e-12
-7.89647e-12
1.2612e-11
-8.29073e-12
1.51477e-11
-7.77347e-12
1.71813e-11
-6.34003e-12
1.84941e-11
-4.13681e-12
1.89446e-11
-1.42654e-12
1.84843e-11
1.4583e-12
1.71636e-11
4.16176e-12
1.51254e-11
6.35341e-12
1.25888e-11
7.77385e-12
9.82196e-12
8.28028e-12
7.10472e-12
7.87991e-12
4.68533e-12
6.74238e-12
2.73876e-12
5.16514e-12
1.34025e-12
3.49032e-12
4.68061e-13
1.99801e-12
3.34104e-14
8.52499e-13
-9.32941e-14
1.37204e-13
-6.63609e-14
-1.40964e-13
-1.78446e-14
-1.1661e-13
-2.63208e-14
-3.35027e-15
-3.23447e-14
4.92952e-14
-8.93262e-14
1.73566e-13
-7.66471e-14
1.28239e-13
1.77991e-13
-3.91991e-13
8.4556e-13
-1.52104e-12
2.05526e-12
-3.21122e-12
3.88242e-12
-5.32558e-12
6.31755e-12
-7.61379e-12
9.2422e-12
-9.68421e-12
1.24385e-11
-1.10927e-11
1.5624e-11
-1.14763e-11
1.84965e-11
-1.06459e-11
2.07755e-11
-8.61911e-12
2.22369e-11
-5.59821e-12
2.27368e-11
-1.92645e-12
2.22264e-11
1.9688e-12
2.07562e-11
5.63189e-12
1.84717e-11
8.63794e-12
1.55977e-11
1.06478e-11
1.24144e-11
1.14636e-11
9.22306e-12
1.10713e-11
6.30445e-12
9.66099e-12
3.87493e-12
7.59466e-12
2.05186e-12
5.31339e-12
8.44415e-13
3.20545e-12
1.77728e-13
1.51919e-12
-7.66967e-14
3.91629e-13
-8.93418e-14
-1.28319e-13
-3.23475e-14
-1.73605e-13
-4.92989e-14
-9.36938e-15
-5.11387e-14
8.11332e-14
-1.04868e-13
2.27295e-13
-1.84768e-14
4.18484e-14
4.11925e-13
-8.22393e-13
1.36059e-12
-2.4697e-12
2.94555e-12
-4.79618e-12
5.2187e-12
-7.59872e-12
8.13244e-12
-1.05275e-11
1.15256e-11
-1.30773e-11
1.51446e-11
-1.47117e-11
1.86844e-11
-1.5016e-11
2.18318e-11
-1.37934e-11
2.43046e-11
-1.10919e-11
2.58804e-11
-7.17397e-12
2.64179e-11
-2.46397e-12
2.58693e-11
2.51738e-12
2.42843e-11
7.21694e-12
2.18054e-11
1.11168e-11
1.86557e-11
1.37975e-11
1.51177e-11
1.50016e-11
1.15034e-11
1.46856e-11
8.11655e-12
1.30478e-11
5.20905e-12
1.05022e-11
2.9408e-12
7.58164e-12
1.3588e-12
4.78744e-12
4.1145e-13
2.46654e-12
-1.85703e-14
8.21649e-13
-1.04891e-13
-4.19985e-14
-5.11439e-14
-2.27351e-13
-8.11417e-14
-1.9301e-14
-7.20169e-14
1.1965e-13
-1.02729e-13
2.58008e-13
9.90194e-14
-1.599e-13
7.54857e-13
-1.47823e-12
2.02967e-12
-3.74451e-12
4.02185e-12
-6.78837e-12
6.75218e-12
-1.03291e-11
1.0131e-11
-1.39064e-11
1.39568e-11
-1.69031e-11
1.79475e-11
-1.87025e-11
2.17843e-11
-1.88528e-11
2.51523e-11
-1.71614e-11
2.77745e-11
-1.3714e-11
2.94358e-11
-8.8353e-12
3.0001e-11
-3.02922e-12
2.94245e-11
3.09391e-12
2.77536e-11
8.8879e-12
2.51248e-11
1.37456e-11
2.17539e-11
1.71683e-11
1.79183e-11
1.88373e-11
1.39318e-11
1.8672e-11
1.01124e-11
1.68673e-11
6.74027e-12
1.38743e-11
4.01555e-12
1.03064e-11
2.02706e-12
6.77593e-12
7.5407e-13
3.73953e-12
9.88488e-14
1.47687e-12
-1.02766e-13
1.59616e-13
-7.20252e-14
-2.58092e-13
-1.19666e-13
-3.35008e-14
-9.0412e-14
1.58789e-13
-6.93243e-14
2.3692e-13
2.95462e-13
-5.24687e-13
1.22595e-12
-2.40871e-12
2.86686e-12
-5.38543e-12
5.2903e-12
-9.21181e-12
8.48008e-12
-1.35188e-11
1.23033e-11
-1.77296e-11
1.65227e-11
-2.11225e-11
2.08353e-11
-2.30152e-11
2.49167e-11
-2.29342e-11
2.84573e-11
-2.0702e-11
3.11907e-11
-1.64475e-11
3.29133e-11
-1.05579e-11
3.3498e-11
-3.61393e-12
3.2902e-11
3.68991e-12
3.11696e-11
1.06203e-11
2.84292e-11
1.6486e-11
2.48852e-11
2.07123e-11
2.08042e-11
2.29183e-11
1.64954e-11
2.29808e-11
1.22821e-11
2.10805e-11
8.46586e-12
1.76906e-11
5.28229e-12
1.34899e-11
2.86325e-12
9.19497e-12
1.22473e-12
5.37805e-12
2.95168e-13
2.40643e-12
-6.93843e-14
5.24168e-13
-9.04245e-14
-2.37051e-13
-1.58816e-13
-5.12744e-14
-9.87956e-14
1.87301e-13
1.22192e-14
1.25906e-13
5.91681e-13
-1.10415e-12
1.84347e-12
-3.66051e-12
3.88427e-12
-7.42622e-12
6.75482e-12
-1.20824e-11
1.0398e-11
-1.7162e-11
1.46391e-11
-2.19706e-11
1.9211e-11
-2.56943e-11
2.37975e-11
-2.76018e-11
2.80756e-11
-2.72122e-11
3.17465e-11
-2.43729e-11
3.45586e-11
-1.92596e-11
3.63221e-11
-1.23214e-11
3.69193e-11
-4.2112e-12
3.6311e-11
4.29827e-12
3.45377e-11
1.23935e-11
3.17183e-11
1.93054e-11
2.80435e-11
2.43872e-11
2.37651e-11
2.71966e-11
1.91817e-11
2.75642e-11
1.46156e-11
2.56466e-11
1.03815e-11
2.19247e-11
6.74497e-12
1.71265e-11
3.8795e-12
1.20604e-11
1.8417e-12
7.41584e-12
5.91202e-13
3.65693e-12
1.21186e-14
1.10325e-12
-9.88147e-14
-1.26118e-13
-1.87343e-13
-7.02877e-14
-8.6191e-14
1.87557e-13
1.61766e-13
-1.22051e-13
1.00902e-12
-1.9514e-12
2.6244e-12
-5.27589e-12
5.0919e-12
-9.89372e-12
8.4172e-12
-1.54077e-11
1.25003e-11
-2.12452e-11
1.7128e-11
-2.65984e-11
2.20103e-11
-3.05766e-11
2.6825e-11
-3.24165e-11
3.12563e-11
-3.16434e-11
3.50204e-11
-2.81371e-11
3.78832e-11
-2.21224e-11
3.96703e-11
-1.41084e-11
4.02743e-11
-4.81524e-12
3.96595e-11
4.91309e-12
3.78629e-11
1.41902e-11
3.49926e-11
2.21757e-11
3.1224e-11
2.81558e-11
2.67918e-11
3.16288e-11
2.19795e-11
3.23765e-11
1.71025e-11
3.05237e-11
1.24816e-11
2.65455e-11
8.40544e-12
2.12026e-11
5.08581e-12
1.53801e-11
2.62194e-12
9.87972e-12
1.00828e-12
5.27059e-12
1.616e-13
1.94993e-12
-8.6221e-14
1.21703e-13
-1.87624e-13
-8.59402e-14
-3.78661e-14
1.34674e-13
4.01655e-13
-5.61572e-13
1.56863e-12
-3.11838e-12
3.58403e-12
-7.29129e-12
6.49763e-12
-1.28073e-11
1.02773e-11
-1.91873e-11
1.47802e-11
-2.57481e-11
1.97599e-11
-3.15781e-11
2.49104e-11
-3.57271e-11
2.991e-11
-3.7416e-11
3.44549e-11
-3.61884e-11
3.82797e-11
-3.1962e-11
4.11693e-11
-2.50119e-11
4.29653e-11
-1.59044e-11
4.35713e-11
-5.42121e-12
4.2955e-11
5.52937e-12
4.11496e-11
1.59955e-11
3.82526e-11
2.50727e-11
3.44229e-11
3.19855e-11
2.98764e-11
3.61754e-11
2.48784e-11
3.73744e-11
1.97325e-11
3.56696e-11
1.47594e-11
3.15187e-11
1.02636e-11
2.56984e-11
6.49009e-12
1.91536e-11
3.58074e-12
1.27891e-11
1.56754e-12
7.28378e-12
4.0139e-13
3.11609e-12
-3.79137e-14
5.61008e-13
-1.34779e-13
-9.07589e-14
6.47403e-14
-3.92974e-15
7.55989e-13
-1.25282e-12
2.2908e-12
-4.65319e-12
4.73575e-12
-9.73623e-12
8.10717e-12
-1.61787e-11
1.23333e-11
-2.34134e-11
1.72302e-11
-3.0645e-11
2.25246e-11
-3.68725e-11
2.79015e-11
-4.11041e-11
3.30454e-11
-4.25599e-11
3.76684e-11
-4.08114e-11
4.15254e-11
-3.58189e-11
4.44212e-11
-2.79076e-11
4.62138e-11
-1.7697e-11
4.68176e-11
-6.02502e-12
4.6204e-11
6.14295e-12
4.44024e-11
1.77972e-11
4.14993e-11
2.79758e-11
3.76372e-11
3.58476e-11
3.30119e-11
4.08007e-11
2.78689e-11
4.25174e-11
2.24958e-11
4.10426e-11
1.72075e-11
3.6807e-11
1.23177e-11
3.05883e-11
8.0981e-12
2.33731e-11
4.73149e-12
1.61557e-11
2.28927e-12
9.726e-12
7.55582e-13
4.64977e-12
6.46647e-14
1.25193e-12
3.76514e-15
-7.38789e-14
2.43823e-13
-2.68406e-13
1.24978e-12
-2.25877e-12
3.19437e-12
-6.59779e-12
6.09085e-12
-1.26327e-11
9.92418e-12
-2.00121e-11
1.45816e-11
-2.80709e-11
1.98422e-11
-3.59055e-11
2.54125e-11
-4.24428e-11
3.09752e-11
-4.66668e-11
3.62255e-11
-4.78103e-11
4.08946e-11
-4.54805e-11
4.47587e-11
-3.9683e-11
4.76429e-11
-3.07919e-11
4.94218e-11
-1.94759e-11
5.002e-11
-6.62327e-12
4.94126e-11
6.75034e-12
4.76252e-11
1.95846e-11
4.47338e-11
3.08673e-11
4.08643e-11
3.9717e-11
3.61925e-11
4.54725e-11
3.09423e-11
4.77676e-11
2.53827e-11
4.66023e-11
1.98179e-11
4.23717e-11
1.45642e-11
3.5842e-11
9.91351e-12
2.80238e-11
6.0855e-12
1.99837e-11
3.19229e-12
1.26192e-11
1.24918e-12
6.59289e-12
2.43704e-13
2.2574e-12
2.68145e-13
-2.06758e-14
5.24733e-13
-7.05717e-13
1.908e-12
-3.64204e-12
4.29626e-12
-8.98605e-12
7.65846e-12
-1.59949e-11
1.19503e-11
-2.43039e-11
1.70176e-11
-3.31382e-11
2.26077e-11
-4.14956e-11
2.84143e-11
-4.82494e-11
3.41235e-11
-5.23759e-11
3.94453e-11
-5.3132e-11
4.41315e-11
-5.01668e-11
4.79808e-11
-4.35323e-11
5.08384e-11
-3.36494e-11
5.25946e-11
-2.12322e-11
5.31844e-11
-7.21307e-12
5.25862e-11
7.34861e-12
5.08219e-11
2.13488e-11
4.79573e-11
3.37319e-11
4.41026e-11
4.35717e-11
3.9413e-11
5.01621e-11
3.40907e-11
5.30899e-11
2.83838e-11
5.23091e-11
2.2582e-11
4.81735e-11
1.69985e-11
4.14255e-11
1.1938e-11
3.30843e-11
7.65194e-12
2.42697e-11
4.29352e-12
1.59776e-11
1.90715e-12
8.97927e-12
5.24552e-13
3.63999e-12
7.05309e-13
8.73893e-14
9.35244e-13
-1.36824e-12
2.7547e-12
-5.46149e-12
5.6111e-12
-1.18425e-11
9.44554e-12
-1.98293e-11
1.41852e-11
-2.90435e-11
1.96353e-11
-3.85883e-11
2.55181e-11
-4.73785e-11
3.15214e-11
-5.42527e-11
3.73395e-11
-5.8194e-11
4.27003e-11
-5.84928e-11
4.73779e-11
-5.48444e-11
5.11932e-11
-4.73476e-11
5.4011e-11
-3.64673e-11
5.57372e-11
-2.29583e-11
5.63161e-11
-7.79201e-12
5.57294e-11
7.93529e-12
5.39958e-11
2.30824e-11
5.11713e-11
3.65565e-11
4.73505e-11
4.73925e-11
4.26691e-11
5.48434e-11
3.73071e-11
5.8452e-11
3.14905e-11
5.81257e-11
2.54914e-11
5.41727e-11
1.96146e-11
4.73023e-11
1.41713e-11
3.85276e-11
9.43776e-12
2.90033e-11
5.60762e-12
1.98078e-11
2.75352e-12
1.18334e-11
9.34978e-13
5.45853e-12
1.36761e-12
2.72675e-13
1.5046e-12
-2.3118e-12
3.81207e-12
-7.76896e-12
7.15109e-12
-1.51815e-11
1.14569e-11
-2.41351e-11
1.66269e-11
-3.42135e-11
2.24279e-11
-4.43894e-11
2.85648e-11
-5.35154e-11
3.47254e-11
-6.04133e-11
4.06167e-11
-6.40853e-11
4.59868e-11
-6.38629e-11
5.06327e-11
-5.94903e-11
5.43972e-11
-5.1112e-11
5.71641e-11
-3.92342e-11
5.88539e-11
-2.46481e-11
5.94199e-11
-8.35804e-12
5.88469e-11
8.50832e-12
5.71503e-11
2.4779e-11
5.4377e-11
3.93298e-11
5.0607e-11
5.11624e-11
4.59571e-11
5.94933e-11
4.05851e-11
6.3824e-11
3.46945e-11
6.40163e-11
2.85373e-11
6.033e-11
2.24059e-11
5.34337e-11
1.66115e-11
4.4322e-11
1.14478e-11
3.4167e-11
7.14676e-12
2.41088e-11
3.8105e-12
1.51696e-11
1.50422e-12
7.76481e-12
2.31084e-12
5.60985e-13
2.26242e-12
-3.59322e-12
5.09979e-12
-1.06063e-11
8.92586e-12
-1.90075e-11
1.36952e-11
-2.89045e-11
1.92717e-11
-3.979e-11
2.53879e-11
-5.05056e-11
3.17391e-11
-5.98666e-11
3.80187e-11
-6.66929e-11
4.39496e-11
-7.00162e-11
4.93018e-11
-6.92151e-11
5.38953e-11
-6.40838e-11
5.75942e-11
-5.48109e-11
6.03007e-11
-4.19407e-11
6.19486e-11
-2.6296e-11
6.25e-11
-8.90944e-12
6.19424e-11
9.06597e-12
6.02882e-11
2.64331e-11
5.75758e-11
4.20423e-11
5.38715e-11
5.48667e-11
4.92738e-11
6.40911e-11
4.39192e-11
6.91786e-11
3.79882e-11
6.99473e-11
3.17111e-11
6.6607e-11
2.53648e-11
5.978e-11
1.92549e-11
5.04319e-11
1.36848e-11
3.97371e-11
8.92062e-12
2.8873e-11
5.09775e-12
1.89925e-11
2.26188e-12
1.06007e-11
3.5918e-12
9.80928e-13
3.23752e-12
-5.26761e-12
6.63445e-12
-1.40033e-11
1.09426e-11
-2.33157e-11
1.61612e-11
-3.41231e-11
2.21146e-11
-4.57434e-11
2.85072e-11
-5.68982e-11
3.50327e-11
-6.63921e-11
4.13941e-11
-7.30543e-11
4.73331e-11
-7.59552e-11
5.26426e-11
-7.45246e-11
5.71652e-11
-6.86064e-11
6.07857e-11
-5.84314e-11
6.34234e-11
-4.45784e-11
6.5025e-11
-2.78976e-11
6.55603e-11
-9.44477e-12
6.50195e-11
9.60677e-12
6.34124e-11
2.80402e-11
6.07692e-11
4.46855e-11
5.71434e-11
5.84924e-11
5.26164e-11
6.86181e-11
4.73041e-11
7.4491e-11
4.13642e-11
7.58871e-11
3.50046e-11
7.29667e-11
2.84833e-11
6.63013e-11
2.20966e-11
5.68186e-11
1.61495e-11
4.56841e-11
1.09363e-11
3.40861e-11
6.63188e-12
2.3297e-11
3.2368e-12
1.39958e-11
5.26557e-12
1.56304e-12
4.45683e-12
-7.38562e-12
8.42924e-12
-1.79757e-11
1.32059e-11
-2.80923e-11
1.88536e-11
-3.97707e-11
2.51493e-11
-5.20391e-11
3.17776e-11
-6.35265e-11
3.84374e-11
-7.30519e-11
4.48449e-11
-7.94618e-11
5.07628e-11
-8.18731e-11
5.60068e-11
-7.97686e-11
6.04421e-11
-7.30417e-11
6.3973e-11
-6.19623e-11
6.65348e-11
-4.71402e-11
6.80861e-11
-2.94489e-11
6.86042e-11
-9.96281e-12
6.80814e-11
1.01295e-11
6.65252e-11
2.95964e-11
6.39583e-11
4.72524e-11
6.04225e-11
6.20283e-11
5.59827e-11
7.30578e-11
5.07354e-11
7.97383e-11
4.48161e-11
8.18064e-11
3.84095e-11
7.93732e-11
3.17531e-11
7.29578e-11
2.51302e-11
6.34415e-11
1.88407e-11
5.19736e-11
1.31987e-11
3.97281e-11
8.42608e-12
2.80696e-11
4.45589e-12
1.7966e-11
7.38274e-12
2.33872e-12
5.94434e-12
-9.99076e-12
1.04938e-11
-2.25252e-11
1.57185e-11
-3.3317e-11
2.17695e-11
-4.58217e-11
2.83684e-11
-5.8638e-11
3.51905e-11
-7.03485e-11
4.19455e-11
-7.98069e-11
4.83651e-11
-8.58815e-11
5.42346e-11
-8.77425e-11
5.93927e-11
-8.49267e-11
6.3726e-11
-7.7375e-11
6.71573e-11
-6.53936e-11
6.96372e-11
-4.962e-11
7.1135e-11
-3.09467e-11
7.16347e-11
-1.04625e-11
7.1131e-11
1.06332e-11
6.9629e-11
3.10985e-11
6.71446e-11
4.97367e-11
6.37085e-11
6.54644e-11
5.93707e-11
7.73957e-11
5.4209e-11
8.49001e-11
4.83375e-11
8.76779e-11
4.1918e-11
8.57927e-11
3.51657e-11
7.97101e-11
2.83485e-11
7.02588e-11
2.17555e-11
5.85666e-11
1.57103e-11
4.57733e-11
1.049e-11
3.32898e-11
5.94314e-12
2.25129e-11
9.9868e-12
3.33908e-12
7.72035e-12
-1.31172e-11
1.28345e-11
-2.76393e-11
1.84807e-11
-3.89632e-11
2.49041e-11
-5.22452e-11
3.17639e-11
-6.54978e-11
3.87374e-11
-7.7322e-11
4.55494e-11
-8.66189e-11
5.1949e-11
-9.22811e-11
5.77449e-11
-9.35384e-11
6.27984e-11
-8.99803e-11
6.70167e-11
-8.15933e-11
7.034e-11
-6.87169e-11
7.27326e-11
-5.20126e-11
7.41742e-11
-3.23883e-11
7.46547e-11
-1.09431e-11
7.4171e-11
1.11169e-11
7.27259e-11
3.25435e-11
7.03293e-11
5.21334e-11
6.70016e-11
6.87921e-11
6.27788e-11
8.16184e-11
5.77214e-11
8.99575e-11
5.19229e-11
9.34763e-11
4.55227e-11
9.21929e-11
3.87127e-11
8.65201e-11
3.17433e-11
7.72281e-11
2.48892e-11
6.54207e-11
1.84715e-11
5.2191e-11
1.283e-11
3.89313e-11
7.71886e-12
2.7624e-11
1.31119e-11
4.5938e-12
9.80086e-12
-1.67879e-11
1.54542e-11
-3.32926e-11
2.1491e-11
-4.5e-11
2.82514e-11
-5.90057e-11
3.53271e-11
-7.25734e-11
4.241e-11
-8.4405e-11
4.92421e-11
-9.34509e-11
5.55915e-11
-9.86305e-11
6.12907e-11
-9.92376e-11
6.62228e-11
-9.49124e-11
7.03145e-11
-8.5685e-11
7.35222e-11
-7.19246e-11
7.58231e-11
-5.43135e-11
7.7206e-11
-3.37712e-11
7.76666e-11
-1.14037e-11
7.72035e-11
1.158e-11
7.58177e-11
3.39293e-11
7.35134e-11
5.44377e-11
7.03016e-11
7.20039e-11
6.62055e-11
8.57145e-11
6.12693e-11
9.48937e-11
5.55671e-11
9.91785e-11
4.92165e-11
9.85435e-11
4.23856e-11
9.33511e-11
3.53061e-11
8.43076e-11
2.82356e-11
7.24912e-11
2.14809e-11
5.89457e-11
1.5449e-11
4.49632e-11
9.79905e-12
3.3274e-11
1.67809e-11
6.12999e-12
1.21973e-11
-2.10137e-11
1.83531e-11
-3.94484e-11
2.47463e-11
-5.13932e-11
3.18039e-11
-6.60632e-11
3.90487e-11
-7.98183e-11
4.62e-11
-9.15563e-11
5.30169e-11
-1.00268e-10
5.92878e-11
-1.04901e-10
6.4869e-11
-1.04819e-10
6.96646e-11
-9.9708e-11
7.36195e-11
-8.96399e-11
7.6705e-11
-7.50102e-11
7.89102e-11
-5.65187e-11
8.02325e-11
-3.50935e-11
8.06726e-11
-1.18437e-11
8.02307e-11
1.20218e-11
7.89062e-11
3.52538e-11
7.6698e-11
5.66459e-11
7.36088e-11
7.50932e-11
6.96497e-11
8.96736e-11
6.48499e-11
9.96935e-11
5.92653e-11
1.04763e-10
5.29927e-11
1.04816e-10
4.61762e-11
1.00168e-10
3.90276e-11
9.14562e-11
3.17874e-11
7.97314e-11
2.47354e-11
6.59978e-11
1.83473e-11
5.13513e-11
1.21952e-11
3.9426e-11
2.10048e-11
7.97133e-12
1.49166e-11
-2.57929e-11
2.15289e-11
-4.60607e-11
2.82417e-11
-5.8106e-11
3.55527e-11
-7.33743e-11
4.29197e-11
-8.71853e-11
5.00995e-11
-9.87361e-11
5.68675e-11
-1.07036e-10
6.30336e-11
-1.11067e-10
6.84775e-11
-1.10263e-10
7.31229e-11
-1.04353e-10
7.69317e-11
-9.34487e-11
7.98894e-11
-7.79678e-11
8.19957e-11
-5.8625e-11
8.32557e-11
-3.63534e-11
8.36747e-11
-1.22627e-11
8.32546e-11
1.2442e-11
8.1993e-11
3.65154e-11
7.98843e-11
5.87546e-11
7.69233e-11
7.80542e-11
7.31104e-11
9.34865e-11
6.84608e-11
1.04343e-10
6.30132e-11
1.10211e-10
5.68449e-11
1.10984e-10
5.00765e-11
1.06936e-10
4.28987e-11
9.8634e-11
3.55358e-11
8.70944e-11
2.823e-11
7.33035e-11
2.15224e-11
5.80589e-11
1.49141e-11
4.60344e-11
2.57816e-11
1.01373e-11
1.79612e-11
-3.11111e-11
2.49773e-11
-5.30767e-11
3.19708e-11
-6.50995e-11
3.94884e-11
-8.08918e-11
4.69306e-11
-9.46275e-11
5.41008e-11
-1.05906e-10
6.07881e-11
-1.13723e-10
6.6825e-11
-1.17104e-10
7.21139e-11
-1.15552e-10
7.65967e-11
-1.08836e-10
8.02515e-11
-9.71036e-11
8.30763e-11
-8.07926e-11
8.50808e-11
-6.06296e-11
8.62771e-11
-3.75497e-11
8.66746e-11
-1.26603e-11
8.62766e-11
1.284e-11
8.50794e-11
3.77126e-11
8.3073e-11
6.0761e-11
8.02452e-11
8.08819e-11
7.65866e-11
9.71451e-11
7.20996e-11
1.0883e-10
6.68068e-11
1.15504e-10
6.07672e-11
1.17024e-10
5.40789e-11
1.13624e-10
4.691e-11
1.05803e-10
3.94713e-11
9.45331e-11
3.19586e-11
8.08162e-11
2.49702e-11
6.50473e-11
1.79583e-11
5.30462e-11
3.10971e-11
1.26428e-11
2.13296e-11
-3.69426e-11
2.8692e-11
-6.04391e-11
3.5926e-11
-7.23335e-11
4.36007e-11
-8.85666e-11
5.10725e-11
-1.02099e-10
5.81965e-11
-1.1303e-10
6.47732e-11
-1.203e-10
7.06585e-11
-1.2299e-10
7.57763e-11
-1.2067e-10
8.00854e-11
-1.13145e-10
8.35791e-11
-1.00597e-10
8.62667e-11
-8.34802e-11
8.8167e-11
-6.25298e-11
8.92983e-11
-3.8681e-11
8.96739e-11
-1.30359e-11
8.92984e-11
1.32155e-11
8.81667e-11
3.88443e-11
8.6265e-11
6.26627e-11
8.35749e-11
8.35721e-11
8.00777e-11
1.00642e-10
7.57644e-11
1.13143e-10
7.06426e-11
1.20625e-10
6.47541e-11
1.22913e-10
5.81759e-11
1.20202e-10
5.10525e-11
1.12926e-10
4.35836e-11
1.02002e-10
3.59133e-11
8.84865e-11
2.86844e-11
7.22762e-11
2.13264e-11
6.04042e-11
3.69256e-11
1.54979e-11
2.5017e-11
-4.32515e-11
3.26656e-11
-6.80877e-11
4.00983e-11
-7.97662e-11
4.7879e-11
-9.63473e-11
5.53363e-11
-1.09557e-10
6.23797e-11
-1.20074e-10
6.88176e-11
-1.26738e-10
7.45308e-11
-1.28703e-10
7.94628e-11
-1.25601e-10
8.35885e-11
-1.17271e-10
8.69146e-11
-1.03923e-10
8.94612e-11
-8.60269e-11
9.12552e-11
-6.43238e-11
9.23206e-11
-3.97463e-11
9.26741e-11
-1.33895e-11
9.23213e-11
1.35683e-11
9.12561e-11
3.99095e-11
8.94612e-11
6.44576e-11
8.69125e-11
8.61208e-11
8.35831e-11
1.03972e-10
7.94534e-11
1.17273e-10
7.45173e-11
1.25561e-10
6.88006e-11
1.28629e-10
6.23606e-11
1.26642e-10
5.53172e-11
1.1997e-10
4.78621e-11
1.09457e-10
4.00853e-11
9.62632e-11
3.26576e-11
7.9704e-11
2.50134e-11
6.80483e-11
4.32311e-11
1.8708e-11
2.90154e-11
-4.99928e-11
3.68893e-11
-7.59617e-11
4.44775e-11
-8.73544e-11
5.23123e-11
-1.04182e-10
5.97137e-11
-1.16958e-10
6.66437e-11
-1.27004e-10
7.29166e-11
-1.33011e-10
7.84389e-11
-1.34225e-10
8.31719e-11
-1.30334e-10
8.71053e-11
-1.21204e-10
9.02583e-11
-1.07076e-10
9.26607e-11
-8.84292e-11
9.43466e-11
-6.60097e-11
9.53452e-11
-4.07449e-11
9.56763e-11
-1.37206e-11
9.53464e-11
1.38981e-11
9.43485e-11
4.09074e-11
9.26622e-11
6.61438e-11
9.02582e-11
8.85248e-11
8.71022e-11
1.07128e-10
8.31649e-11
1.2121e-10
7.84278e-11
1.30299e-10
7.29018e-11
1.34155e-10
6.66263e-11
1.32918e-10
5.96957e-11
1.269e-10
5.22958e-11
1.16857e-10
4.44644e-11
1.04095e-10
3.68809e-11
8.72875e-11
2.90116e-11
7.59177e-11
4.99687e-11
2.22739e-11
3.33147e-11
-5.71148e-11
4.13534e-11
-8.40004e-11
4.90526e-11
-9.50536e-11
5.68899e-11
-1.12019e-10
6.41964e-11
-1.24264e-10
7.09823e-11
-1.33789e-10
7.70659e-11
-1.39094e-10
8.23803e-11
-1.39539e-10
8.69022e-11
-1.34856e-10
9.06354e-11
-1.24938e-10
9.36104e-11
-1.10051e-10
9.58657e-11
-9.06845e-11
9.7442e-11
-6.7586e-11
9.83731e-11
-4.1676e-11
9.86816e-11
-1.4029e-11
9.83749e-11
1.42048e-11
9.74449e-11
4.18373e-11
9.58687e-11
6.77201e-11
9.36122e-11
9.07814e-11
9.06345e-11
1.10105e-10
8.68976e-11
1.24947e-10
8.23716e-11
1.34825e-10
7.70533e-11
1.39474e-10
7.09668e-11
1.39004e-10
6.41796e-11
1.33687e-10
5.6874e-11
1.24163e-10
4.90397e-11
1.11929e-10
4.13447e-11
9.49824e-11
3.33106e-11
8.39518e-11
5.70868e-11
2.61925e-11
3.7903e-11
-6.45606e-11
4.60472e-11
-9.21446e-11
5.38121e-11
-1.02818e-10
6.16012e-11
-1.19808e-10
6.87767e-11
-1.3144e-10
7.53895e-11
-1.40402e-10
8.12615e-11
-1.44966e-10
8.63524e-11
-1.4463e-10
9.06524e-11
-1.39156e-10
9.41784e-11
-1.28464e-10
9.69711e-11
-1.12844e-10
9.90768e-11
-9.27901e-11
1.00542e-10
-6.90515e-11
1.01405e-10
-4.25391e-11
1.01691e-10
-1.43147e-11
1.01408e-10
1.44882e-11
1.00546e-10
4.26988e-11
9.90812e-11
6.9185e-11
9.69747e-11
9.28879e-11
9.41797e-11
1.129e-10
9.06502e-11
1.28477e-10
8.63462e-11
1.39129e-10
8.12512e-11
1.44568e-10
7.53759e-11
1.4488e-10
6.87614e-11
1.40302e-10
6.15861e-11
1.31338e-10
5.37994e-11
1.19716e-10
4.60385e-11
1.02743e-10
3.78987e-11
9.20916e-11
6.45285e-11
3.04571e-11
4.27669e-11
-7.22694e-11
5.09595e-11
-1.00337e-10
5.87436e-11
-1.10603e-10
6.6436e-11
-1.27501e-10
7.34474e-11
-1.38451e-10
7.98597e-11
-1.46815e-10
8.54998e-11
-1.50607e-10
9.03531e-11
-1.49484e-10
9.44214e-11
-1.43225e-10
9.77339e-11
-1.31776e-10
1.00341e-10
-1.15451e-10
1.02294e-10
-9.47441e-11
1.03648e-10
-7.0405e-11
1.04443e-10
-4.33336e-11
1.04705e-10
-1.45775e-11
1.04445e-10
1.47483e-11
1.03653e-10
4.34912e-11
1.023e-10
7.05375e-11
1.00346e-10
9.48423e-11
9.77372e-11
1.15509e-10
9.44215e-11
1.31792e-10
9.03493e-11
1.43201e-10
8.54917e-11
1.49426e-10
7.98482e-11
1.50523e-10
7.34336e-11
1.46716e-10
6.6422e-11
1.3835e-10
5.87314e-11
1.27406e-10
5.09508e-11
1.10524e-10
4.27625e-11
1.0028e-10
7.2233e-11
3.50579e-11
4.78922e-11
-8.01786e-11
5.60782e-11
-1.08523e-10
6.3835e-11
-1.18359e-10
7.13847e-11
-1.35051e-10
7.82014e-11
-1.45268e-10
8.43878e-11
-1.53001e-10
8.97773e-11
-1.55996e-10
9.43804e-11
-1.54087e-10
9.82082e-11
-1.47052e-10
1.01302e-10
-1.3487e-10
1.03719e-10
-1.17868e-10
1.05519e-10
-9.65446e-11
1.0676e-10
-7.16456e-11
1.07486e-10
-4.40593e-11
1.07725e-10
-1.48172e-11
1.07489e-10
1.49849e-11
1.06765e-10
4.42144e-11
1.05526e-10
7.17768e-11
1.03726e-10
9.66429e-11
1.01307e-10
1.17928e-10
9.82105e-11
1.34889e-10
9.43789e-11
1.47033e-10
8.97716e-11
1.54033e-10
8.43784e-11
1.55917e-10
7.81894e-11
1.52905e-10
7.13719e-11
1.45167e-10
6.38233e-11
1.34955e-10
5.60697e-11
1.18278e-10
4.78877e-11
1.08462e-10
8.01378e-11
3.99829e-11
5.32639e-11
-8.82245e-11
6.1391e-11
-1.1665e-10
6.90739e-11
-1.26042e-10
7.64384e-11
-1.42415e-10
8.30322e-11
-1.51862e-10
8.89689e-11
-1.58938e-10
9.4091e-11
-1.61118e-10
9.84324e-11
-1.58428e-10
1.02012e-10
-1.50632e-10
1.04881e-10
-1.37739e-10
1.07106e-10
-1.20092e-10
1.08751e-10
-9.81899e-11
1.09879e-10
-7.27726e-11
1.10535e-10
-4.47157e-11
1.10751e-10
-1.50337e-11
1.10538e-10
1.5198e-11
1.09885e-10
4.48679e-11
1.0876e-10
7.29021e-11
1.07114e-10
9.82879e-11
1.04889e-10
1.20154e-10
1.02016e-10
1.37761e-10
9.84331e-11
1.50616e-10
9.40876e-11
1.58379e-10
8.89616e-11
1.61043e-10
8.3022e-11
1.58845e-10
7.64269e-11
1.51762e-10
6.9063e-11
1.42319e-10
6.13827e-11
1.25958e-10
5.32595e-11
1.16585e-10
8.81793e-11
4.5218e-11
5.88668e-11
-9.63437e-11
6.68851e-11
-1.24669e-10
7.44483e-11
-1.33605e-10
8.15884e-11
-1.49555e-10
8.79337e-11
-1.58207e-10
9.35984e-11
-1.64602e-10
9.84383e-11
-1.65958e-10
1.02507e-10
-1.62497e-10
1.05831e-10
-1.53956e-10
1.08473e-10
-1.40381e-10
1.10503e-10
-1.22122e-10
1.11991e-10
-9.96788e-11
1.13004e-10
-7.37854e-11
1.13591e-10
-4.53027e-11
1.13785e-10
-1.52271e-11
1.13595e-10
1.53875e-11
1.13011e-10
4.54517e-11
1.12001e-10
7.39128e-11
1.10512e-10
9.97762e-11
1.08482e-10
1.22184e-10
1.05838e-10
1.40405e-10
1.0251e-10
1.53943e-10
9.84371e-11
1.62452e-10
9.35933e-11
1.65886e-10
8.79254e-11
1.64513e-10
8.15784e-11
1.58109e-10
7.44383e-11
1.49459e-10
6.68773e-11
1.33519e-10
5.88624e-11
1.246e-10
9.62941e-11
5.07476e-11
6.46852e-11
-1.04474e-10
7.25477e-11
-1.32531e-10
7.99467e-11
-1.41004e-10
8.68271e-11
-1.56436e-10
9.29e-11
-1.6428e-10
9.82724e-11
-1.69975e-10
1.02816e-10
-1.70502e-10
1.06604e-10
-1.66285e-10
1.09666e-10
-1.57018e-10
1.12076e-10
-1.4279e-10
1.13908e-10
-1.23955e-10
1.1524e-10
-1.0101e-10
1.16138e-10
-7.46835e-11
1.16655e-10
-4.582e-11
1.16825e-10
-1.53971e-11
1.16659e-10
1.55535e-11
1.16145e-10
4.59655e-11
1.1525e-10
7.48084e-11
1.13919e-10
1.01107e-10
1.12086e-10
1.24017e-10
1.09675e-10
1.42816e-10
1.06609e-10
1.57009e-10
1.02817e-10
1.66244e-10
9.82694e-11
1.70434e-10
9.28936e-11
1.69889e-10
8.68186e-11
1.64184e-10
7.99377e-11
1.5634e-10
7.25403e-11
1.40916e-10
6.46809e-11
1.32459e-10
1.0442e-10
5.65551e-11
7.07037e-11
-1.12554e-10
7.83659e-11
-1.40193e-10
8.55582e-11
-1.48197e-10
9.21472e-11
-1.63025e-10
9.79256e-11
-1.70058e-10
1.02987e-10
-1.75036e-10
1.07223e-10
-1.74738e-10
1.10721e-10
-1.69782e-10
1.13516e-10
-1.59813e-10
1.1569e-10
-1.44964e-10
1.17323e-10
-1.25588e-10
1.18496e-10
-1.02183e-10
1.19279e-10
-7.54664e-11
1.19726e-10
-4.62675e-11
1.19873e-10
-1.55439e-11
1.19731e-10
1.56959e-11
1.19287e-10
4.64093e-11
1.18507e-10
7.55886e-11
1.17335e-10
1.02278e-10
1.15701e-10
1.25651e-10
1.13526e-10
1.44992e-10
1.10728e-10
1.59807e-10
1.07226e-10
1.69745e-10
1.02986e-10
1.74675e-10
9.79211e-11
1.74954e-10
9.21402e-11
1.69965e-10
8.55503e-11
1.6293e-10
7.83592e-11
1.48107e-10
7.06996e-11
1.40119e-10
1.12496e-10
6.26232e-11
7.69069e-11
-1.20527e-10
8.43272e-11
-1.47614e-10
9.12726e-11
-1.55142e-10
9.75418e-11
-1.69294e-10
1.03005e-10
-1.75522e-10
1.07739e-10
-1.79769e-10
1.11657e-10
-1.78656e-10
1.14856e-10
-1.72982e-10
1.17379e-10
-1.62335e-10
1.19315e-10
-1.469e-10
1.20747e-10
-1.27021e-10
1.21761e-10
-1.03197e-10
1.22428e-10
-7.61337e-11
1.22806e-10
-4.66451e-11
1.22929e-10
-1.56674e-11
1.2281e-10
1.58148e-11
1.22437e-10
4.67829e-11
1.21772e-10
7.6253e-11
1.2076e-10
1.0329e-10
1.19328e-10
1.27083e-10
1.17391e-10
1.46929e-10
1.14865e-10
1.62332e-10
1.11662e-10
1.72948e-10
1.0774e-10
1.78597e-10
1.03003e-10
1.79691e-10
9.75365e-11
1.75431e-10
9.1266e-11
1.692e-10
8.43212e-11
1.55052e-10
7.69031e-11
1.47537e-10
1.20465e-10
6.89341e-11
8.32798e-11
-1.28337e-10
9.04194e-11
-1.54753e-10
9.70805e-11
-1.61803e-10
1.03005e-10
-1.75218e-10
1.08134e-10
-1.80652e-10
1.12524e-10
-1.84159e-10
1.16115e-10
-1.82247e-10
1.19009e-10
-1.75877e-10
1.21256e-10
-1.64581e-10
1.2295e-10
-1.48594e-10
1.2418e-10
-1.28251e-10
1.25034e-10
-1.0405e-10
1.25586e-10
-7.66854e-11
1.25893e-10
-4.69528e-11
1.25993e-10
-1.57674e-11
1.25898e-10
1.59101e-11
1.25595e-10
4.70864e-11
1.25046e-10
7.68014e-11
1.24194e-10
1.04142e-10
1.22965e-10
1.28313e-10
1.21269e-10
1.48625e-10
1.1902e-10
1.64581e-10
1.16122e-10
1.75847e-10
1.12528e-10
1.82191e-10
1.08134e-10
1.84085e-10
1.03001e-10
1.80564e-10
9.70752e-11
1.75126e-10
9.04142e-11
1.61713e-10
8.32764e-11
1.54675e-10
1.28272e-10
7.547e-11
8.98078e-11
-1.35932e-10
9.66308e-11
-1.61576e-10
1.02973e-10
-1.68146e-10
1.08531e-10
-1.80775e-10
1.13308e-10
-1.85429e-10
1.17342e-10
-1.88193e-10
1.20596e-10
-1.85501e-10
1.23179e-10
-1.7846e-10
1.25145e-10
-1.66547e-10
1.26596e-10
-1.50046e-10
1.27623e-10
-1.29278e-10
1.28316e-10
-1.04743e-10
1.28752e-10
-7.7121e-11
1.28989e-10
-4.71906e-11
1.29066e-10
-1.58442e-11
1.28994e-10
1.59819e-11
1.28761e-10
4.73197e-11
1.28329e-10
7.72337e-11
1.27638e-10
1.04833e-10
1.26612e-10
1.2934e-10
1.25159e-10
1.50077e-10
1.23191e-10
1.66549e-10
1.20604e-10
1.78433e-10
1.17347e-10
1.85449e-10
1.1331e-10
1.88122e-10
1.08529e-10
1.85345e-10
1.02969e-10
1.80686e-10
9.66265e-11
1.68056e-10