/*--------------------------------*- C++ -*----------------------------------*\
| =========                 |                                                 |
| \\      /  F ield         | OpenFOAM: The Open Source CFD Toolbox           |
|  \\    /   O peration     | Version:  2.4.0                                 |
|   \\  /    A nd           | Web:      www.OpenFOAM.org                      |
|    \\/     M anipulation  |                                                 |
\*---------------------------------------------------------------------------*/
FoamFile
{
    version     2.0;
    format      ascii;
    class       volVectorField;
    location    "0.03";
    object      U;
}
// * * * * * * * * * * * * * * * * * * * * * * * * * * * * * * * * * * * * * //

dimensions      [0 1 -1 0 0 0 0];

internalField   nonuniform List<vector> 
7200
(
(3.4085e-07 5.34218e-07 0)
(1.58939e-06 2.75938e-06 1.81144e-23)
(-1.25205e-05 -2.71726e-05 -2.76995e-24)
(-5.45185e-05 -9.91667e-05 -3.57923e-24)
(-8.81688e-05 -0.000130024 4.53912e-22)
(-4.72101e-05 -4.08452e-05 -1.49674e-21)
(0.000138199 0.000190297 -1.83255e-23)
(0.000543303 0.00054941 2.03321e-23)
(0.00123217 0.000987604 3.46589e-21)
(0.00222016 0.00141478 -6.0905e-23)
(0.00344466 0.00171526 2.08014e-21)
(0.00476586 0.00178448 1.87411e-21)
(0.0059966 0.00156602 1.51516e-21)
(0.00694596 0.00107194 0)
(0.00746105 0.000381042 1.97195e-24)
(0.00745792 -0.000380658 0)
(0.00693745 -0.00107047 5.04182e-24)
(0.00598498 -0.00156293 6.0032e-23)
(0.00475392 -0.00178005 -1.80127e-21)
(0.00343476 -0.00171045 -8.2329e-23)
(0.0022135 -0.00141068 -2.94186e-23)
(0.00122867 -0.000984906 6.8017e-21)
(0.00054199 -0.000548135 -2.04804e-23)
(0.000137929 -0.000189937 -2.0961e-21)
(-4.72123e-05 4.0877e-05 -7.19657e-22)
(-8.81782e-05 0.000130034 -4.32321e-22)
(-5.45378e-05 9.91865e-05 0)
(-1.25229e-05 2.71767e-05 -1.16797e-23)
(1.59159e-06 -2.76112e-06 1.39396e-23)
(3.40834e-07 -5.34851e-07 -1.55051e-24)
(1.24285e-07 2.17874e-06 3.79052e-26)
(-4.3237e-06 -4.76035e-06 -1.47071e-23)
(-4.81099e-05 -0.00012171 -5.49944e-23)
(-0.000138309 -0.000308629 -6.66001e-24)
(-0.000156589 -0.000309779 -6.69772e-22)
(9.31722e-05 4.76134e-05 -6.75247e-23)
(0.000810087 0.000782543 2.29128e-23)
(0.00218388 0.00182769 -4.11494e-21)
(0.00434164 0.00302566 -1.95158e-22)
(0.00726408 0.00412649 2.64228e-21)
(0.0107369 0.0048387 -2.7286e-21)
(0.0143722 0.0049183 -2.78716e-21)
(0.0176884 0.00424884 -4.30582e-21)
(0.0202118 0.00288035 -6.76461e-22)
(0.0215707 0.00101969 6.64161e-23)
(0.0215627 -0.00101698 5.41645e-23)
(0.0201898 -0.00287519 -6.42142e-22)
(0.0176578 -0.00424 2.19171e-21)
(0.0143399 -0.00490637 2.12679e-22)
(0.010709 -0.00482579 -2.9116e-21)
(0.00724418 -0.00411522 2.70809e-21)
(0.00433014 -0.00301786 -2.36135e-22)
(0.00217882 -0.00182364 -4.14695e-21)
(0.000808581 -0.000781157 3.16834e-21)
(9.29491e-05 -4.73805e-05 1.10982e-21)
(-0.000156604 0.000309817 1.33977e-21)
(-0.000138333 0.000308684 6.18635e-24)
(-4.81191e-05 0.000121729 9.31416e-24)
(-4.32591e-06 4.7558e-06 -2.18863e-23)
(1.23637e-07 -2.18127e-06 2.86791e-25)
(-9.82058e-07 3.38838e-06 -1.95092e-24)
(-1.85553e-05 -3.00494e-05 1.13707e-25)
(-0.000105526 -0.000242685 -5.30098e-23)
(-0.000223062 -0.000484667 4.39247e-22)
(-0.000135135 -0.000361302 -8.40121e-22)
(0.000471485 0.000330725 2.45079e-21)
(0.00189369 0.00157945 0)
(0.00439296 0.003248 4.23804e-21)
(0.0081023 0.00506779 -5.06579e-21)
(0.0129184 0.0066572 -2.75229e-21)
(0.0184616 0.00760497 2.55672e-22)
(0.0241292 0.00758914 -2.06009e-23)
(0.029214 0.00647458 2.07918e-21)
(0.0330412 0.00435558 6.81268e-22)
(0.0350896 0.00153712 -1.73798e-24)
(0.0350779 -0.00153041 -1.0193e-22)
(0.0330087 -0.00434587 6.50344e-22)
(0.0291681 -0.00646034 0)
(0.0240797 -0.00757108 4.8403e-21)
(0.0184175 -0.00758576 2.51927e-21)
(0.0128854 -0.00664025 -2.64944e-21)
(0.00808197 -0.00505564 -4.90694e-21)
(0.00438305 -0.00324127 -2.95016e-23)
(0.0018902 -0.00157685 1.62382e-21)
(0.000470731 -0.000330152 1.61109e-23)
(-0.000135216 0.000361383 -1.55327e-21)
(-0.000223093 0.00048474 0)
(-0.000105544 0.000242718 -2.64953e-23)
(-1.85578e-05 3.00444e-05 0)
(-9.81512e-07 -3.39333e-06 2.82091e-24)
(-4.4833e-06 2.79827e-06 2.16627e-24)
(-4.5884e-05 -7.47081e-05 0)
(-0.000177014 -0.000375812 1.0431e-22)
(-0.000270245 -0.000605623 8.21619e-23)
(3.68285e-05 -0.000279222 8.6145e-22)
(0.00114918 0.000790137 -1.26554e-21)
(0.00343254 0.00254139 -2.74483e-23)
(0.00717949 0.00475795 -3.99075e-21)
(0.0124811 0.00706748 0)
(0.0191184 0.00898836 -3.86707e-23)
(0.0265488 0.0100359 2.64243e-21)
(0.0339914 0.00985389 -2.20271e-21)
(0.0405718 0.00831409 1.641e-23)
(0.0454772 0.00555504 0)
(0.0480885 0.00195511 5.16307e-23)
(0.048074 -0.00194313 9.41241e-23)
(0.0454367 -0.00554007 0)
(0.0405139 -0.00829464 1.59293e-23)
(0.0339277 -0.00983071 -2.32153e-21)
(0.0264905 -0.0100118 -2.57509e-21)
(0.019073 -0.00896703 0)
(0.0124515 -0.00705182 0)
(0.00716386 -0.00474884 3.9075e-21)
(0.00342628 -0.00253752 -1.64646e-21)
(0.0011475 -0.000789122 -1.21544e-21)
(3.65706e-05 0.000279377 8.2219e-22)
(-0.000270292 0.000605705 0)
(-0.000177042 0.000375856 1.46379e-22)
(-4.58905e-05 7.47029e-05 5.32681e-26)
(-4.4824e-06 -2.80639e-06 0)
(-1.22077e-05 -1.13687e-06 4.73285e-24)
(-8.81913e-05 -0.00013775 1.01179e-24)
(-0.000248212 -0.000504286 -1.20039e-24)
(-0.000242117 -0.000651225 7.06712e-23)
(0.000408276 -5.91534e-05 9.72981e-22)
(0.00217121 0.00140969 2.17628e-23)
(0.00545315 0.00363433 -5.16566e-23)
(0.0105386 0.00631505 4.10413e-21)
(0.0174391 0.00899031 0)
(0.0258042 0.0111098 -2.36995e-21)
(0.0349404 0.0121526 3.82822e-23)
(0.0439249 0.0117587 1.53283e-22)
(0.0517653 0.00982206 1.52176e-23)
(0.0575595 0.00652207 1.46399e-24)
(0.060629 0.00228995 -5.33293e-23)
(0.0606124 -0.00227179 -4.3575e-23)
(0.0575132 -0.00650134 4.97573e-22)
(0.0516984 -0.00979752 0)
(0.0438498 -0.0117311 -1.7462e-23)
(0.0348697 -0.0121247 1.68414e-23)
(0.0257473 -0.0110853 3.66344e-23)
(0.0174002 -0.008972 -3.45056e-23)
(0.0105166 -0.00630398 -3.95929e-21)
(0.0054434 -0.00362931 -1.59768e-21)
(0.00216812 -0.00140819 1.2611e-21)
(0.000407665 5.94063e-05 9.32723e-22)
(-0.000242208 0.000651309 5.85594e-22)
(-0.00024825 0.000504335 -1.52933e-22)
(-8.82031e-05 0.000137744 0)
(-1.22068e-05 1.12442e-06 0)
(-2.60502e-05 -9.8869e-06 9.69896e-25)
(-0.000144056 -0.000215252 2.52547e-23)
(-0.00029803 -0.0006099 -2.17772e-24)
(-9.73175e-05 -0.000605626 6.09328e-23)
(0.00102674 0.000297152 8.1678e-24)
(0.00357761 0.00216895 1.94527e-23)
(0.00797523 0.00482335 0)
(0.0144603 0.00787993 0)
(0.0229383 0.010807 2.11672e-21)
(0.0329228 0.0130143 4.52592e-21)
(0.0435885 0.0139733 -2.08975e-21)
(0.0539049 0.0133412 3.95336e-21)
(0.0628016 0.0110421 0)
(0.0693248 0.00729076 0)
(0.0727652 0.00255438 0)
(0.0727473 -0.00252936 0)
(0.0692744 -0.00726387 -4.96347e-22)
(0.062728 -0.0110125 -4.79899e-24)
(0.053821 -0.0133098 -1.82704e-21)
(0.0435076 -0.0139427 -1.56942e-23)
(0.0328555 -0.0129876 0)
(0.0228902 -0.0107869 0)
(0.0144314 -0.00786746 0)
(0.00796131 -0.00481738 3.20583e-21)
(0.0035726 -0.00216701 1.87092e-23)
(0.00102553 -0.0002968 -9.72549e-22)
(-9.75103e-05 0.000605699 -6.046e-22)
(-0.000298082 0.000609942 0)
(-0.000144075 0.000215241 0)
(-2.605e-05 9.86796e-06 0)
(-4.74035e-05 -2.45871e-05 -7.08003e-24)
(-0.000207223 -0.000300463 -7.38691e-23)
(-0.000297871 -0.000674713 -3.3985e-24)
(0.000208914 -0.000458611 6.10981e-23)
(0.00193789 0.000782148 -1.06356e-21)
(0.00540305 0.00304436 -2.19771e-23)
(0.0110115 0.00607411 -1.55967e-21)
(0.0189293 0.00941784 -2.87054e-23)
(0.02894 0.0124947 -8.72541e-23)
(0.0404263 0.0146994 -4.37392e-21)
(0.0524528 0.0155173 4.19456e-21)
(0.0639125 0.0146354 -1.90526e-21)
(0.0736894 0.0120116 -1.30754e-23)
(0.0808067 0.00788973 4.50766e-22)
(0.0845452 0.00275897 -1.25854e-24)
(0.0845265 -0.00272665 1.14341e-24)
(0.0807536 -0.00785641 -4.20742e-22)
(0.0736112 -0.0119771 -6.53529e-22)
(0.063822 -0.0146007 1.82714e-21)
(0.0523637 -0.0154846 1.46088e-23)
(0.0403499 -0.0146715 3.30091e-23)
(0.0288832 -0.0124737 -3.12122e-23)
(0.0188934 -0.0094046 -2.7791e-23)
(0.0109928 -0.00606756 -3.11548e-21)
(0.00539561 -0.00304212 -2.12203e-23)
(0.0019358 -0.000781738 -1.01848e-21)
(0.000208526 0.00045865 -7.2658e-22)
(-0.00029795 0.000674732 -7.02545e-24)
(-0.000207249 0.00030044 0)
(-4.74047e-05 2.45579e-05 0)
(-7.63379e-05 -4.58111e-05 0)
(-0.000265123 -0.000384232 5.40997e-23)
(-0.000211856 -0.000682624 0)
(0.000723501 -0.00020606 -8.09231e-22)
(0.00318492 0.00138329 1.59745e-23)
(0.00767681 0.00401032 0)
(0.0145682 0.00735386 1.63677e-21)
(0.0239263 0.010899 0)
(0.0354062 0.0140368 -2.04215e-21)
(0.0482714 0.0161674 2.06977e-21)
(0.0614993 0.0168045 -3.87142e-21)
(0.0739334 0.0156729 2.71435e-24)
(0.0844383 0.0127637 6.56934e-22)
(0.0920356 0.00834373 -3.64736e-23)
(0.0960116 0.00291281 0)
(0.0959924 -0.00287291 3.0593e-23)
(0.0919812 -0.00830382 8.10381e-22)
(0.0843574 -0.0127243 6.65527e-22)
(0.0738384 -0.0156351 1.40342e-23)
(0.0614038 -0.0167703 -1.81983e-21)
(0.0481873 -0.0161389 0)
(0.0353414 -0.0140156 -1.83073e-21)
(0.0238833 -0.0108857 -2.78395e-23)
(0.0145444 -0.00734717 3.08113e-21)
(0.00766642 -0.004008 4.05414e-23)
(0.0031816 -0.00138292 1.02707e-21)
(0.000722783 0.000206016 -3.41744e-23)
(-0.000211988 0.000682594 -4.37756e-24)
(-0.000265159 0.000384185 3.16519e-24)
(-7.63412e-05 4.57654e-05 0)
(-0.000110563 -7.34053e-05 2.33755e-25)
(-0.000297593 -0.000455706 -1.25906e-22)
(2.28229e-06 -0.000620744 -6.44593e-24)
(0.00149385 0.000150256 1.41133e-23)
(0.0048075 0.00208428 -1.6613e-23)
(0.0104224 0.00504033 0)
(0.0186458 0.00863227 0)
(0.0294288 0.0122988 0)
(0.0423 0.0154222 1.7952e-21)
(0.0564191 0.0174238 1.88126e-24)
(0.070699 0.0178555 1.92792e-21)
(0.0839571 0.0164826 -1.54029e-21)
(0.0950586 0.0133276 -5.16822e-23)
(0.103039 0.00867406 -4.17063e-22)
(0.107202 0.00302362 3.53308e-23)
(0.107183 -0.00297602 -3.07267e-23)
(0.102985 -0.0086275 -3.86495e-22)
(0.0949765 -0.0132833 1.07177e-23)
(0.0838594 -0.016442 -1.04766e-23)
(0.070599 -0.0178202 3.50018e-21)
(0.0563288 -0.0173954 0)
(0.042228 -0.0154016 1.88071e-21)
(0.0293789 -0.012286 -2.60874e-23)
(0.0186165 -0.00862597 -1.5002e-21)
(0.0104086 -0.00503826 -1.24929e-24)
(0.00480258 -0.00208412 -1.72222e-23)
(0.00149262 -0.000150465 8.30278e-22)
(2.05231e-06 0.000620621 -9.38868e-24)
(-0.000297644 0.000455616 0)
(-0.000110569 7.33331e-05 0)
(-0.000144241 -0.000106403 -8.33037e-25)
(-0.000275991 -0.00050325 -3.64183e-23)
(0.000391805 -0.000480464 -6.89574e-22)
(0.00256629 0.000603274 1.45646e-23)
(0.00684114 0.00286622 -1.70326e-23)
(0.0136577 0.00610806 1.30652e-21)
(0.0232394 0.00988211 -1.51072e-21)
(0.0354123 0.0135975 2.60227e-23)
(0.0495861 0.0166446 -1.84391e-21)
(0.0648348 0.0184771 1.70286e-21)
(0.0800279 0.0186906 2.7829e-23)
(0.093976 0.017091 1.09182e-22)
(0.105561 0.0137289 -1.14111e-21)
(0.113843 0.00889903 3.54527e-22)
(0.11815 0.00309799 -3.54857e-23)
(0.118131 -0.00304271 0)
(0.113789 -0.00884585 0)
(0.105479 -0.0136798 9.88386e-24)
(0.0938772 -0.0170476 -1.36008e-21)
(0.079925 -0.0186545 -1.69303e-21)
(0.0647396 -0.0184493 -1.66411e-21)
(0.0495079 -0.0166252 0)
(0.0353559 -0.0135859 2.50827e-23)
(0.0232047 -0.00987678 1.40766e-21)
(0.0136401 -0.00610666 1.94796e-23)
(0.00683425 -0.00286651 1.04753e-21)
(0.00256435 -0.000603781 -1.27535e-23)
(0.000391409 0.000480182 1.03661e-23)
(-0.000276068 0.000503086 -1.67887e-22)
(-0.00014425 0.000106289 -3.95132e-25)
(-0.000166759 -0.00014303 1.24456e-23)
(-0.000162854 -0.000515475 4.25488e-22)
(0.00100718 -0.000258141 7.09547e-22)
(0.00398482 0.00114157 9.28037e-22)
(0.00931682 0.00370874 0)
(0.0173949 0.00718812 -1.35345e-21)
(0.0283399 0.0110796 1.01452e-22)
(0.0418506 0.0147802 0)
(0.0572309 0.0177017 -1.62935e-21)
(0.0734876 0.0193377 -1.77006e-21)
(0.0894659 0.0193293 -1.50243e-21)
(0.103985 0.0175219 1.13553e-22)
(0.115955 0.0139899 5.64401e-22)
(0.12447 0.00903442 -3.55274e-22)
(0.128886 0.00314155 -9.21604e-25)
(0.128868 -0.0030787 7.97948e-25)
(0.124417 -0.0089747 2.40098e-24)
(0.115874 -0.0139361 -3.15027e-24)
(0.103887 -0.017476 1.00683e-22)
(0.0893616 -0.0192927 1.08536e-23)
(0.073389 -0.0193107 1.70489e-21)
(0.0571476 -0.017684 1.54079e-21)
(0.0417883 -0.0147705 -2.39997e-23)
(0.0282996 -0.0110758 -1.41014e-21)
(0.0173732 -0.00718786 -6.11675e-25)
(0.00930758 -0.0037098 -1.10849e-21)
(0.00398191 -0.00114256 9.01566e-22)
(0.00100653 0.000257598 -2.04895e-23)
(-0.000162975 0.000515188 1.85278e-22)
(-0.00016677 0.000142849 7.27143e-24)
(-0.000161558 -0.000180795 -1.2533e-23)
(8.77994e-05 -0.000482297 -2.39027e-22)
(0.0019001 4.4674e-05 -1.14736e-23)
(0.00579002 0.00175048 -3.50166e-23)
(0.0122607 0.00459093 1.72733e-23)
(0.0216406 0.00825673 2.00393e-23)
(0.0339339 0.0122047 1.41143e-21)
(0.0487171 0.0158363 2.38159e-23)
(0.0652034 0.0185945 3.18127e-21)
(0.0823507 0.0200171 -2.33919e-23)
(0.0989965 0.0197908 2.97505e-21)
(0.113982 0.017797 1.31142e-21)
(0.126252 0.0141304 0)
(0.134942 0.0090938 -3.03261e-22)
(0.139436 0.00315911 0)
(0.139418 -0.0030889 0)
(0.134891 -0.00902771 0)
(0.126174 -0.0140719 4.38893e-22)
(0.113885 -0.0177487 1.26488e-21)
(0.0988922 -0.0197538 1.33332e-21)
(0.08225 -0.0199914 0)
(0.065116 -0.0185789 -1.58254e-21)
(0.0486496 -0.015829 1.41763e-21)
(0.0338883 -0.0122031 2.10212e-23)
(0.0216147 -0.00825815 -3.49027e-25)
(0.0122487 -0.00459317 -1.68578e-23)
(0.00578589 -0.00175222 -1.9964e-23)
(0.00189906 -4.56263e-05 0)
(8.76035e-05 0.000481814 2.76074e-22)
(-0.000161574 0.000180512 -5.6245e-23)
(-0.000105185 -0.00021667 0)
(0.000529492 -0.000395917 3.50317e-22)
(0.00312133 0.000421475 -1.28696e-23)
(0.00801838 0.00241336 -4.4125e-23)
(0.0156938 0.0054922 1.7138e-23)
(0.0263966 0.00929227 -1.93164e-23)
(0.0400053 0.0132412 1.33074e-21)
(0.055985 0.0167591 -1.39899e-21)
(0.0734744 0.0193268 -1.55089e-21)
(0.0914001 0.020528 -2.18324e-23)
(0.108606 0.0200931 -1.40962e-21)
(0.123964 0.0179361 1.99245e-24)
(0.136462 0.0141675 8.25726e-24)
(0.145276 0.0090889 3.04693e-22)
(0.149824 0.00315479 -2.66241e-23)
(0.149807 -0.00307749 0)
(0.145227 -0.00901666 2.68587e-24)
(0.136387 -0.0141046 -4.43871e-22)
(0.12387 -0.0178853 -9.54376e-24)
(0.108503 -0.0200558 -2.58732e-21)
(0.0912988 -0.0205037 -1.32498e-21)
(0.0733842 -0.0193137 -2.16775e-23)
(0.055913 -0.0167547 -1.45816e-21)
(0.0399548 -0.0132423 4.03607e-23)
(0.0263663 -0.00929594 -1.26557e-25)
(0.0156789 -0.00549607 1.00969e-21)
(0.00801276 -0.00241617 -1.81876e-21)
(0.00311977 -0.000423037 0)
(0.000529178 0.000395132 -2.88445e-22)
(-0.000105208 0.000216231 5.0323e-23)
(3.33476e-05 -0.000247325 0)
(0.00122165 -0.000251613 -3.47612e-22)
(0.00471883 0.000861468 -1.39389e-23)
(0.0107018 0.00311274 -9.51573e-22)
(0.0196325 0.00639282 -1.68635e-23)
(0.0316597 0.0102757 -1.14657e-21)
(0.0465355 0.0141765 -1.33101e-21)
(0.0636276 0.0175455 1.4176e-21)
(0.0820174 0.0199046 -2.12633e-23)
(0.100615 0.0208835 -1.3188e-21)
(0.118284 0.0202533 2.10415e-23)
(0.133932 0.0179566 0)
(0.146595 0.0141165 0)
(0.15549 0.00902983 0)
(0.160071 0.00313212 5.16241e-23)
(0.160056 -0.00304807 0)
(0.155444 -0.00895171 2.23518e-22)
(0.146523 -0.0140493 2.43095e-24)
(0.133842 -0.0179036 0)
(0.118183 -0.0202157 1.25251e-21)
(0.100515 -0.0208607 2.63195e-21)
(0.0819255 -0.0198942 -1.30432e-21)
(0.0635521 -0.0175443 1.23553e-21)
(0.0464805 -0.0141809 -3.9532e-26)
(0.0316251 -0.0102822 1.1097e-21)
(0.0196144 -0.00639885 -1.05158e-21)
(0.0106944 -0.00311702 9.22643e-22)
(0.00471659 -0.000863903 -7.61801e-22)
(0.00122117 0.000250376 0)
(3.33136e-05 0.000246653 0)
(0.000292753 -0.000269407 0)
(0.00222744 -4.82681e-05 0)
(0.00673603 0.00135058 7.81696e-22)
(0.0138676 0.00383141 1.4529e-23)
(0.0240877 0.00727443 -1.64697e-23)
(0.0374224 0.0111907 1.15182e-21)
(0.0535041 0.0150018 3.80654e-23)
(0.0716193 0.0181951 -2.02132e-23)
(0.0908078 0.0203354 0)
(0.109978 0.0210969 1.31349e-21)
(0.12802 0.0202874 1.15203e-21)
(0.143887 0.0178747 -6.94901e-24)
(0.156659 0.0139906 3.81115e-22)
(0.165601 0.00892537 -6.77757e-25)
(0.170197 0.00309414 -2.43111e-23)
(0.170182 -0.00300372 1.42636e-23)
(0.165558 -0.00884167 -2.26508e-22)
(0.156592 -0.0139192 3.38819e-22)
(0.143801 -0.0178194 -8.97241e-22)
(0.127923 -0.0202495 0)
(0.109879 -0.0210755 -8.35297e-23)
(0.0907154 -0.0203279 2.47465e-21)
(0.0715412 -0.0181975 -1.25346e-21)
(0.0534452 -0.0150099 1.15764e-25)
(0.0373837 -0.0112006 -7.74671e-23)
(0.0240663 -0.00728318 9.42916e-22)
(0.0138582 -0.00383762 8.72726e-22)
(0.00673292 -0.00135422 7.77976e-22)
(0.0022267 4.63792e-05 1.12138e-23)
(0.000292699 0.000268392 0)
(0.000719147 -0.000279833 0)
(0.00361112 0.000211422 4.29806e-22)
(0.00921058 0.00187272 -1.57945e-21)
(0.0175383 0.00455318 -9.0005e-22)
(0.0290657 0.00812034 -9.63883e-22)
(0.0436737 0.0120242 1.67272e-23)
(0.0608896 0.0157115 -1.80326e-23)
(0.0799351 0.0187103 0)
(0.0998236 0.0206282 -1.17887e-21)
(0.119474 0.0211812 1.12617e-21)
(0.137809 0.0202104 -1.13054e-21)
(0.153829 0.0177045 8.03907e-24)
(0.166665 0.0138014 -7.22047e-22)
(0.175622 0.00878307 0)
(0.180218 0.00304346 0)
(0.180204 -0.0029471 -1.48788e-23)
(0.175582 -0.00869415 2.05756e-24)
(0.166602 -0.0137261 -3.24958e-23)
(0.153748 -0.017647 8.95354e-22)
(0.137716 -0.0201722 9.84268e-22)
(0.119377 -0.0211613 -2.24137e-21)
(0.0997317 -0.0206235 -1.20842e-21)
(0.0798553 -0.0187165 1.79764e-23)
(0.0608274 -0.0157237 -1.69241e-23)
(0.0436312 -0.0120379 -1.04075e-21)
(0.029041 -0.00813237 -9.81334e-22)
(0.0175267 -0.00456184 -9.12975e-22)
(0.00920641 -0.00187796 -7.12767e-22)
(0.00361004 -0.000214224 6.66607e-24)
(0.00071906 0.000278324 -5.04557e-24)
(0.00136519 -0.000276055 -5.42661e-22)
(0.00543534 0.000521095 -3.77285e-23)
(0.0121736 0.00241107 1.49868e-21)
(0.021732 0.00526347 9.27512e-22)
(0.0345677 0.0089157 9.87492e-22)
(0.0503991 0.0127658 -1.57756e-23)
(0.0686696 0.0163028 1.69457e-23)
(0.0885513 0.0190953 0)
(0.109044 0.0207925 1.1917e-21)
(0.129087 0.0211493 -1.15404e-21)
(0.147644 0.020036 0)
(0.163762 0.0174587 0)
(0.17662 0.0135592 3.47859e-22)
(0.185567 0.0086095 5.85321e-25)
(0.190149 0.00298233 1.98812e-23)
(0.190137 -0.00288047 4.50574e-25)
(0.18553 -0.00851572 -4.48313e-25)
(0.176562 -0.0134803 -3.06359e-22)
(0.163686 -0.0173992 7.57084e-22)
(0.147556 -0.0199975 -1.88955e-21)
(0.128994 -0.0211309 1.09817e-21)
(0.108954 -0.0207908 -1.61897e-23)
(0.0884709 -0.0191055 1.01833e-21)
(0.068605 -0.0163195 0)
(0.0503532 -0.012784 1.51461e-23)
(0.0345398 -0.00893158 -1.38476e-23)
(0.021718 -0.00527514 0)
(0.0121682 -0.00241838 1.41644e-21)
(0.00543382 -0.000525138 0)
(0.00136505 0.000273851 -5.29345e-22)
(0.00228868 -0.000256289 5.7224e-22)
(0.00775838 0.000871198 3.02165e-22)
(0.0156494 0.00294939 -7.4461e-22)
(0.0264624 0.00594953 1.31774e-23)
(0.0405904 0.0096477 -1.46773e-23)
(0.0575817 0.0134086 9.24596e-22)
(0.0768218 0.0167759 -3.15451e-23)
(0.0974454 0.0193561 1.65788e-23)
(0.118452 0.0208386 1.02024e-21)
(0.138808 0.0210137 -1.51889e-23)
(0.157521 0.0197769 -8.92353e-22)
(0.173686 0.017149 1.37445e-24)
(0.186532 0.013273 3.01587e-22)
(0.195446 0.00841034 -5.44471e-25)
(0.200005 0.00291268 -2.00151e-23)
(0.199994 -0.0028058 -4.06897e-25)
(0.195413 -0.00831209 2.1169e-24)
(0.186478 -0.0131906 2.62212e-22)
(0.173616 -0.0170875 -7.96695e-23)
(0.157438 -0.0197381 8.63712e-23)
(0.13872 -0.0209966 0)
(0.118364 -0.0208398 -9.48301e-22)
(0.0973653 -0.0193703 -1.98968e-21)
(0.0767555 -0.0167972 1.47046e-23)
(0.0575329 -0.0134315 8.65075e-22)
(0.0405593 -0.00966797 -1.29663e-23)
(0.026446 -0.00596478 0)
(0.0156427 -0.00295929 -7.14553e-22)
(0.00775632 -0.000876876 5.9475e-25)
(0.00228846 0.000253133 5.73708e-22)
(0.00355076 -0.000219672 9.14743e-22)
(0.0106317 0.00124974 -4.4603e-22)
(0.0196559 0.00347308 -6.68913e-22)
(0.0317389 0.00660051 0)
(0.0471256 0.0103056 0)
(0.0652025 0.0139482 -9.41598e-22)
(0.0853237 0.0171327 1.47475e-23)
(0.106596 0.0194997 9.37916e-22)
(0.128031 0.020777 -8.51256e-23)
(0.148626 0.0207863 8.98136e-22)
(0.167436 0.0194449 9.28597e-22)
(0.183606 0.0167854 -1.14609e-23)
(0.196408 0.0129505 -2.92421e-22)
(0.20527 0.00819052 0)
(0.209797 0.00283619 0)
(0.209787 -0.00272476 0)
(0.205241 -0.0080882 0)
(0.19636 -0.012865 -2.55724e-22)
(0.183542 -0.016722 -6.94956e-22)
(0.16736 -0.0194057 1.58168e-21)
(0.148543 -0.0207705 8.50024e-22)
(0.127946 -0.0207809 7.21273e-23)
(0.106518 -0.0195178 1.00601e-22)
(0.0852566 -0.0171589 1.30015e-25)
(0.0651514 -0.0139763 -8.05349e-23)
(0.0470917 -0.0103308 9.88691e-25)
(0.0317201 -0.00661993 -1.17493e-23)
(0.0196477 -0.00348615 0)
(0.010629 -0.00125751 0)
(0.00355044 0.000215241 0)
(0.00521376 -0.000166327 -2.15173e-21)
(0.0140981 0.00164322 -4.5511e-22)
(0.024205 0.00396996 6.81991e-22)
(0.0375671 0.00720728 -7.67203e-22)
(0.0541613 0.010881 0)
(0.0732413 0.0143832 0)
(0.0941535 0.0173774 0)
(0.115984 0.0195342 -9.50318e-22)
(0.137765 0.0206181 -1.81842e-21)
(0.158533 0.0204783 -9.4768e-22)
(0.177387 0.0190506 7.78123e-22)
(0.193523 0.0163772 5.87917e-24)
(0.206255 0.0125988 -2.53106e-22)
(0.21505 0.00795429 0)
(0.219537 0.00275429 0)
(0.219529 -0.00263881 0)
(0.215024 -0.00784832 1.41482e-24)
(0.206213 -0.0125104 2.13317e-22)
(0.193465 -0.0163121 0)
(0.177318 -0.0190111 -7.61738e-22)
(0.158455 -0.0204636 -8.43269e-22)
(0.137684 -0.0206246 8.82186e-22)
(0.115908 -0.0195562 8.80023e-22)
(0.0940863 -0.0174083 7.79679e-22)
(0.0731884 -0.0144166 -8.14483e-22)
(0.0541249 -0.0109115 1.20799e-23)
(0.0375459 -0.00723144 2.97234e-25)
(0.0241951 -0.00398678 -9.95176e-24)
(0.0140946 -0.00165362 0)
(0.00521329 0.000160232 0)
(0.00733885 -9.73522e-05 2.63002e-21)
(0.0181901 0.00203771 2.3188e-22)
(0.0293035 0.00443069 0)
(0.0439482 0.00776221 7.89988e-22)
(0.0616816 0.0113676 0)
(0.0816768 0.0147144 0)
(0.10329 0.017515 7.67412e-22)
(0.125591 0.0194682 0)
(0.147642 0.0203723 7.63529e-23)
(0.16852 0.0201003 -1.2047e-23)
(0.187373 0.0186038 -7.63957e-22)
(0.20344 0.0159324 -4.35619e-24)
(0.216081 0.0122238 4.929e-22)
(0.224794 0.00770535 7.63419e-23)
(0.229235 0.00266823 0)
(0.229227 -0.00254919 0)
(0.224771 -0.00759616 1.28222e-24)
(0.216043 -0.0121329 -2.17155e-22)
(0.203389 -0.0158656 0)
(0.18731 -0.0185638 0)
(0.168449 -0.0200865 1.19408e-23)
(0.147566 -0.0203811 -1.15987e-23)
(0.125517 -0.019494 7.40695e-22)
(0.103223 -0.0175509 -7.9087e-22)
(0.081623 -0.0147533 1.07874e-23)
(0.0616431 -0.0114037 -1.00378e-23)
(0.0439246 -0.00779162 0)
(0.0292919 -0.00445187 -6.05548e-22)
(0.0181857 -0.00205131 -2.01303e-23)
(0.0073382 8.91353e-05 -1.38372e-21)
(0.00998384 -1.471e-05 -1.48621e-21)
(0.0229297 0.0024198 2.11171e-22)
(0.034954 0.00484887 6.9967e-22)
(0.0508791 0.00825889 6.42793e-22)
(0.0696674 0.0117616 -1.07682e-23)
(0.0904877 0.0149448 1.09507e-23)
(0.112711 0.0175522 -8.79647e-23)
(0.135399 0.0193108 -7.37471e-22)
(0.157649 0.0200495 1.56332e-21)
(0.178583 0.0196621 -1.11251e-23)
(0.197391 0.0181132 1.13632e-23)
(0.21336 0.0154581 2.7525e-22)
(0.225889 0.0118307 -4.47552e-22)
(0.234509 0.00744689 -7.71246e-23)
(0.238898 0.00257907 -1.48191e-23)
(0.238891 -0.00245696 -5.89407e-24)
(0.23449 -0.0073349 2.6089e-25)
(0.225857 -0.0117376 -1.76637e-22)
(0.213315 -0.0153899 -2.38701e-22)
(0.197335 -0.0180729 0)
(0.178518 -0.0196492 0)
(0.157579 -0.0200606 0)
(0.135329 -0.0193401 -7.49198e-22)
(0.112647 -0.0175927 1.04777e-23)
(0.0904336 -0.0149893 9.6736e-24)
(0.0696272 -0.0118037 -1.88806e-23)
(0.0508535 -0.00829403 9.03309e-24)
(0.0349408 -0.004875 -1.29178e-23)
(0.0229244 -0.00243721 1.71405e-22)
(0.00998296 3.85034e-06 1.46851e-21)
(0.013201 7.89453e-05 0)
(0.0283282 0.00277752 -9.35881e-22)
(0.041156 0.00522078 3.94031e-23)
(0.0583526 0.00869196 -6.51423e-22)
(0.0780971 0.0120614 -5.30592e-22)
(0.0996527 0.015079 9.62277e-24)
(0.122399 0.0174958 -7.25168e-22)
(0.145393 0.019071 1.4349e-21)
(0.167778 0.0196595 -7.64606e-22)
(0.188714 0.0191729 6.62285e-22)
(0.207441 0.0175869 5.91913e-24)
(0.223286 0.0149609 -2.76418e-22)
(0.235686 0.0114243 2.17517e-22)
(0.244203 0.00718169 -6.57964e-23)
(0.248535 0.00248773 1.53015e-23)
(0.24853 -0.00236305 1.03235e-23)
(0.244187 -0.00706733 1.04513e-24)
(0.235659 -0.0113292 1.76561e-22)
(0.223248 -0.0148914 2.36239e-22)
(0.207392 -0.0175462 3.90528e-24)
(0.188656 -0.0191608 9.8863e-24)
(0.167713 -0.0196725 -9.63889e-24)
(0.145327 -0.0191036 6.00216e-22)
(0.122336 -0.017541 0)
(0.0995989 -0.0151291 -5.39188e-22)
(0.0780558 -0.0121097 0)
(0.0583252 -0.00873323 4.84049e-22)
(0.0411412 -0.00525242 6.70602e-22)
(0.028322 -0.00279937 -1.62057e-22)
(0.0131999 -9.30225e-05 -1.96695e-21)
(0.0170354 0.000180493 -2.29312e-21)
(0.0343871 0.00310099 6.85765e-22)
(0.0479064 0.00554492 -7.87968e-22)
(0.066357 0.00905699 0)
(0.0869473 0.0122679 9.99593e-22)
(0.109151 0.0151229 -5.38104e-22)
(0.132333 0.0173537 -1.9273e-23)
(0.155558 0.018758 -5.64763e-23)
(0.178017 0.0192113 0)
(0.19891 0.0186412 -6.7674e-22)
(0.217522 0.017032 9.62699e-24)
(0.23322 0.0144464 -3.43312e-24)
(0.245477 0.0110085 4.71495e-24)
(0.253882 0.00691214 4.09767e-24)
(0.258154 0.00239502 -1.40556e-23)
(0.25815 -0.00226824 -4.48277e-24)
(0.253869 -0.00679581 -4.02907e-23)
(0.245455 -0.0109118 -9.33364e-25)
(0.233188 -0.0143758 0)
(0.21748 -0.0169909 0)
(0.198859 -0.0186296 0)
(0.177959 -0.0192261 0)
(0.155497 -0.0187936 -6.16961e-22)
(0.132273 -0.0174031 8.5485e-24)
(0.109098 -0.0151785 5.57223e-22)
(0.0869055 -0.0123224 -7.15005e-24)
(0.0663282 -0.0091047 -4.98095e-22)
(0.0478901 -0.00558258 3.80828e-24)
(0.03438 -0.00312791 5.82147e-22)
(0.017034 -0.000198402 4.33913e-21)
(0.0215236 0.000286592 2.42466e-21)
(0.0410991 0.00338284 5.81944e-24)
(0.0551998 0.00582141 9.63236e-22)
(0.0748764 0.0093505 0)
(0.0961936 0.0123841 -4.7664e-22)
(0.118962 0.0150831 5.49536e-22)
(0.142495 0.0171336 5.25532e-22)
(0.165882 0.0183807 -5.35609e-23)
(0.188358 0.0187136 -5.76725e-22)
(0.209167 0.0180747 -5.6685e-22)
(0.227634 0.016455 4.98193e-24)
(0.243165 0.0139195 7.42878e-25)
(0.255265 0.0105869 4.35365e-24)
(0.263552 0.00664028 1.1674e-22)
(0.26776 0.00230161 1.40961e-23)
(0.267757 -0.0021732 0)
(0.263542 -0.00652242 4.20697e-23)
(0.255248 -0.0104887 -8.36276e-25)
(0.243139 -0.0138479 0)
(0.227599 -0.0164135 0)
(0.209124 -0.0180636 8.06438e-24)
(0.188307 -0.0187299 -4.99938e-22)
(0.165826 -0.0184192 -4.83707e-22)
(0.14244 -0.0171871 -4.42797e-22)
(0.118911 -0.015144 -4.88024e-25)
(0.0961519 -0.0124448 3.53783e-22)
(0.0748465 -0.00940485 2.32677e-22)
(0.0551822 -0.00586552 -7.38134e-24)
(0.041091 -0.00341541 2.12759e-22)
(0.0215218 -0.000308968 -4.99022e-21)
(0.0266928 0.000393919 0)
(0.0484498 0.00361829 0)
(0.0630291 0.00605134 -1.00387e-21)
(0.0838906 0.00957007 4.66413e-24)
(0.105811 0.0124148 -3.95717e-22)
(0.129066 0.0149668 4.44435e-22)
(0.152869 0.0168435 -5.41746e-22)
(0.176351 0.0179479 -5.71738e-22)
(0.198795 0.0181744 5.74493e-22)
(0.219481 0.0174805 5.22228e-23)
(0.237776 0.0158615 -4.63252e-22)
(0.253123 0.0133846 0)
(0.265056 0.0101623 0)
(0.273217 0.0063679 -5.70937e-23)
(0.277359 0.00220809 0)
(0.277357 -0.00207851 1.54324e-25)
(0.273211 -0.0062489 -1.53929e-25)
(0.265044 -0.0100632 1.15575e-22)
(0.253103 -0.0133122 0)
(0.237748 -0.0158197 0)
(0.219445 -0.0174697 4.30202e-22)
(0.19875 -0.018192 4.9025e-22)
(0.176301 -0.0179888 4.83005e-22)
(0.152817 -0.0169008 4.57656e-22)
(0.129017 -0.0150327 1.20594e-23)
(0.10577 -0.0124816 -3.68317e-22)
(0.0838602 -0.00963118 -3.32026e-22)
(0.0630103 -0.00610225 -1.05116e-21)
(0.0484408 -0.00365707 2.27483e-22)
(0.0266907 -0.000421398 2.71244e-21)
(0.0325607 0.000499379 0)
(0.0564189 0.00380509 0)
(0.071385 0.00623626 -1.26014e-21)
(0.0933761 0.00971453 1.47422e-23)
(0.115777 0.0123665 7.54482e-22)
(0.139444 0.0147813 -4.44871e-22)
(0.163437 0.0164916 -4.17651e-22)
(0.186955 0.0174678 4.6383e-22)
(0.20932 0.0176011 0)
(0.22985 0.0168649 5.08754e-22)
(0.247949 0.0152569 9.11987e-22)
(0.263096 0.0128456 6.08871e-25)
(0.274852 0.00973756 3.7101e-24)
(0.282883 0.00609651 -9.9759e-25)
(0.286957 0.00211496 0)
(0.286956 -0.00198465 0)
(0.28288 -0.00597677 6.65695e-25)
(0.274845 -0.00963771 -2.19844e-22)
(0.263082 -0.0127726 1.38709e-22)
(0.247928 -0.0152148 3.45683e-22)
(0.22982 -0.0168544 -4.20276e-22)
(0.209282 -0.0176199 -6.34555e-24)
(0.186911 -0.0175109 -3.78556e-22)
(0.16339 -0.0165522 5.56589e-24)
(0.139398 -0.0148519 2.95099e-22)
(0.115737 -0.0124392 -4.83789e-24)
(0.0933456 -0.00978239 8.98501e-23)
(0.0713654 -0.0062942 -1.14028e-22)
(0.0564091 -0.00385054 -1.08341e-21)
(0.0325582 -0.000532572 0)
(0.0391358 0.000600263 0)
(0.0649824 0.00394314 1.51194e-21)
(0.0802564 0.00637773 1.28674e-21)
(0.103306 0.00978409 -1.35368e-23)
(0.126065 0.0122469 -7.17388e-22)
(0.150077 0.0145338 3.07841e-22)
(0.174185 0.0160857 4.47982e-23)
(0.197684 0.0169482 -4.76816e-22)
(0.219926 0.0170007 7.49527e-26)
(0.24027 0.0162337 4.48167e-25)
(0.258153 0.0146455 -4.26352e-22)
(0.273086 0.0123058 1.67443e-22)
(0.284658 0.00931485 1.35883e-22)
(0.292554 0.00582742 -9.24443e-25)
(0.296557 0.00202265 0)
(0.296557 -0.00189202 0)
(0.292553 -0.00570731 5.87465e-25)
(0.284654 -0.00921457 1.02954e-22)
(0.273078 -0.0122324 -1.39886e-22)
(0.258139 -0.0146032 -3.47965e-22)
(0.240248 -0.0162234 0)
(0.219896 -0.0170203 3.46857e-22)
(0.197646 -0.0169931 3.78099e-22)
(0.174143 -0.0161494 9.86316e-24)
(0.150035 -0.0146087 -3.05482e-22)
(0.126027 -0.0123251 0)
(0.103276 -0.0098586 1.05349e-23)
(0.0802362 -0.00644283 1.23311e-21)
(0.0649719 -0.00399564 1.52408e-21)
(0.0391329 -0.000639733 -3.52016e-21)
(0.0464176 0.00069435 0)
(0.0741134 0.00403408 -3.28872e-21)
(0.0896294 0.00647711 -1.5839e-21)
(0.113652 0.00978055 0)
(0.136656 0.0120642 1.16993e-24)
(0.160949 0.0142311 -6.00476e-23)
(0.185097 0.0156337 3.99999e-23)
(0.208529 0.0163963 0)
(0.23061 0.0163793 0)
(0.250739 0.0155923 3.83419e-22)
(0.268387 0.0140315 1.88381e-22)
(0.283095 0.0117682 -1.7156e-22)
(0.294475 0.00889612 -1.35709e-22)
(0.302233 0.00556172 4.26751e-23)
(0.306163 0.00193152 -5.43897e-24)
(0.306164 -0.00180099 0)
(0.302234 -0.00544162 2.09307e-23)
(0.294476 -0.00879572 0)
(0.283093 -0.0116946 -2.06865e-24)
(0.26838 -0.013989 -1.3368e-22)
(0.250724 -0.0155821 -2.95621e-22)
(0.230586 -0.0163996 -4.57212e-23)
(0.208498 -0.0164427 0)
(0.185061 -0.0157 0)
(0.160911 -0.01431 0)
(0.136621 -0.0121477 0)