/*--------------------------------*- C++ -*----------------------------------*\
| =========                 |                                                 |
| \\      /  F ield         | OpenFOAM: The Open Source CFD Toolbox           |
|  \\    /   O peration     | Version:  5.x                                   |
|   \\  /    A nd           | Web:      www.OpenFOAM.org                      |
|    \\/     M anipulation  |                                                 |
\*---------------------------------------------------------------------------*/
FoamFile
{
    version     2.0;
    format      ascii;
    class       volScalarField;
    location    "0.015";
    object      p;
}
// * * * * * * * * * * * * * * * * * * * * * * * * * * * * * * * * * * * * * //

dimensions      [0 2 -2 0 0 0 0];

internalField   nonuniform List<scalar> 
7200
(
0.000220352
-0.0562134
-0.0302003
0.17778
0.453361
0.699085
0.913149
1.10982
1.27821
1.38439
1.39041
1.2709
1.02239
0.663481
0.231172
-0.226419
-0.657055
-1.01285
-1.25732
-1.37263
-1.36302
-1.25431
-1.08447
-0.88713
-0.672804
-0.426971
-0.151389
0.05639
0.0821072
0.0254918
-0.0101085
-0.0660594
0.0109905
0.257947
0.52563
0.74465
0.932963
1.10372
1.24329
1.32082
1.30537
1.17826
0.939327
0.606118
0.210778
-0.205858
-0.599662
-0.929981
-1.1651
-1.28814
-1.29999
-1.21982
-1.07865
-0.90709
-0.71844
-0.499273
-0.231547
0.0152686
0.0919824
0.035888
-0.0233066
-0.0660175
0.0660401
0.335745
0.58301
0.773487
0.936654
1.08158
1.19344
1.2454
1.21284
1.08235
0.85586
0.54945
0.190781
-0.185721
-0.542977
-0.846705
-1.06959
-1.19615
-1.22511
-1.17041
-1.0568
-0.910947
-0.747362
-0.5567
-0.309362
-0.0397444
0.092007
0.049106
-0.0388818
-0.0536648
0.131834
0.408395
0.628349
0.791757
0.932024
1.05359
1.14166
1.17309
1.12814
0.997065
0.783002
0.500521
0.173593
-0.168445
-0.494063
-0.774039
-0.984691
-1.11195
-1.15332
-1.11906
-1.02911
-0.906494
-0.765728
-0.602098
-0.382048
-0.105524
0.0797296
0.0647076
-0.0556774
-0.0266546
0.206839
0.475775
0.664383
0.802286
0.921077
1.02107
1.0882
1.10257
1.04836
0.918516
0.716852
0.456472
0.158173
-0.152972
-0.450052
-0.708085
-0.906509
-1.03265
-1.08331
-1.06603
-0.996899
-0.895736
-0.776365
-0.638206
-0.449487
-0.180538
0.0527876
0.0815457
-0.0714654
0.0170017
0.28762
0.535315
0.690996
0.805373
0.904044
0.984259
1.03306
1.03336
0.972432
0.845264
0.655967
0.416245
0.144137
-0.138908
-0.409879
-0.647396
-0.833609
-0.957194
-1.01458
-1.01131
-0.960395
-0.878902
-0.779572
-0.664904
-0.509101
-0.26135
0.00918333
0.0973869
-0.083073
0.0780222
0.369653
0.58463
0.708228
0.801373
0.881403
0.943831
0.976913
0.965871
0.900466
0.777121
0.60002
0.379551
0.131372
-0.126138
-0.373251
-0.591642
-0.765805
-0.885674
-0.947565
-0.95558
-0.920278
-0.856465
-0.775699
-0.682228
-0.558499
-0.343436
-0.0518072
0.109052
-0.086519
0.155498
0.448059
0.622313
0.716661
0.790853
0.853818
0.900574
0.920437
0.900516
0.832506
0.713856
0.548658
0.346091
0.119766
-0.114542
-0.339868
-0.540473
-0.702867
-0.818143
-0.88267
-0.899515
-0.877335
-0.82909
-0.765313
-0.690758
-0.59627
-0.42191
-0.129278
0.112555
-0.0771977
0.246769
0.518068
0.647906
0.71712
0.774411
0.821983
0.855223
0.864196
0.837547
0.768481
0.655163
0.501493
0.315556
0.1092
-0.104003
-0.309417
-0.493499
-0.64449
-0.754534
-0.820151
-0.84368
-0.832298
-0.797469
-0.749009
-0.691314
-0.62195
-0.491999
-0.22057
0.103287
-0.0501504
0.347441
0.575473
0.661801
0.710497
0.752636
0.786604
0.808453
0.808661
0.777145
0.708288
0.600744
0.45817
0.287667
0.0995727
-0.0944125
-0.281619
-0.450366
-0.590379
-0.694746
-0.760191
-0.78855
-0.785844
-0.762308
-0.727375
-0.684788
-0.635926
-0.549491
-0.321289
0.0762881
-0.00041266
0.451576
0.617057
0.665109
0.697654
0.72613
0.748395
0.760885
0.754232
0.71944
0.651809
0.550321
0.418369
0.262178
0.0907927
-0.085679
-0.256227
-0.410754
-0.540257
-0.638664
-0.702922
-0.734526
-0.738595
-0.72432
-0.701012
-0.67204
-0.63931
-0.591161
-0.425492
0.0265931
0.0765969
0.552051
0.640928
0.659459
0.679346
0.695512
0.708058
0.713072
0.701241
0.664514
0.598911
0.503631
0.381802
0.238871
0.0827798
-0.0777197
-0.23302
-0.374372
-0.493861
-0.586156
-0.64843
-0.681941
-0.691108
-0.68421
-0.67054
-0.653824
-0.633726
-0.615113
-0.526054
-0.0503794
0.184681
0.641059
0.646726
0.64673
0.656189
0.661436
0.666268
0.665501
0.649955
0.61241
0.549452
0.460425
0.348202
0.217549
0.0754624
-0.0704615
-0.2118
-0.340958
-0.450944
-0.537082
-0.596759
-0.631067
-0.64387
-0.642654
-0.636612
-0.630757
-0.621056
-0.620983
-0.615163
-0.158432
0.326501
0.710713
0.635676
0.628791
0.628663
0.624592
0.623651
0.618588
0.600585
0.563135
0.503283
0.420469
0.317332
0.198036
0.0687768
-0.0638392
-0.192392
-0.310271
-0.411273
-0.491295
-0.547918
-0.582116
-0.5973
-0.60028
-0.59992
-0.603319
-0.603169
-0.609991
-0.684928
-0.300227
0.503287
0.753684
0.610459
0.607253
0.597156
0.585708
0.580771
0.572683
0.553292
0.51667
0.460255
0.383544
0.288973
0.180175
0.0626662
-0.0577948
-0.174636
-0.282091
-0.374628
-0.448644
-0.501889
-0.53525
-0.551752
-0.557655
-0.561193
-0.571899
-0.581675
-0.584819
-0.728016
-0.476995
0.714643
0.763815
0.574952
0.583273
0.56203
0.545528
0.538115
0.528077
0.508191
0.472973
0.420213
0.349445
0.262925
0.163824
0.0570797
-0.0522763
-0.158389
-0.25622
-0.340804
-0.408978
-0.458633
-0.490588
-0.507518
-0.515267
-0.521179
-0.536863
-0.557736
-0.549338
-0.738263
-0.688344
0.958492
0.73664
0.533825
0.557448
0.523702
0.50479
0.496089
0.485007
0.46536
0.431986
0.383008
0.317979
0.239008
0.148855
0.0519719
-0.0472372
-0.143524
-0.232475
-0.309608
-0.372146
-0.418089
-0.448208
-0.464838
-0.473527
-0.480618
-0.498628
-0.53195
-0.508223
-0.711199
-0.932195
1.23113
0.669767
0.492077
0.529789
0.48271
0.464187
0.455018
0.443664
0.424843
0.393634
0.348491
0.288969
0.217056
0.135153
0.0473018
-0.0426358
-0.129923
-0.210691
-0.280861
-0.337998
-0.380185
-0.408156
-0.423904
-0.432762
-0.440206
-0.457735
-0.504332
-0.466471
-0.644426
-1.20485
1.52744
0.563073
0.454546
0.49979
0.439766
0.424331
0.415155
0.404197
0.386654
0.357833
0.316518
0.262247
0.196918
0.122613
0.0430326
-0.0384346
-0.117482
-0.190716
-0.254396
-0.30639
-0.344837
-0.370447
-0.38487
-0.393228
-0.400559
-0.414899
-0.474379
-0.428925
-0.537816
-1.50119
1.84116
0.418694
0.42545
0.466571
0.395772
0.385711
0.376691
0.36672
0.350785
0.324493
0.286947
0.237656
0.178455
0.111141
0.0391312
-0.0345996
-0.106106
-0.172411
-0.230055
-0.277179
-0.311952
-0.335072
-0.347849
-0.35512
-0.36217
-0.371027
-0.441214
-0.399807
-0.393503
-1.81495
2.16531
0.240832
0.408023
0.429073
0.351806
0.348665
0.339775
0.331315
0.317204
0.293517
0.259643
0.215052
0.161541
0.100651
0.0355674
-0.0311003
-0.0957091
-0.155648
-0.207693
-0.250229
-0.281433
-0.302
-0.312925
-0.318591
-0.325383
-0.327198
-0.40378
-0.382355
-0.215685
-2.13915
2.49256
0.0353872
0.404265
0.386274
0.309059
0.313371
0.304532
0.29803
0.285864
0.264804
0.234475
0.194297
0.146059
0.0910643
0.032314
-0.027909
-0.0862117
-0.140312
-0.187171
-0.225407
-0.253176
-0.271181
-0.280148
-0.283767
-0.290379
-0.284611
-0.361061
-0.378575
-0.0102624
-2.46646
2.81569
-0.190532
0.414839
0.337395
0.26876
0.279844
0.271074
0.266886
0.256706
0.238252
0.211317
0.175266
0.131903
0.0823108
0.0293464
-0.0250005
-0.0775426
-0.126293
-0.168363
-0.202586
-0.227079
-0.242556
-0.249537
-0.250762
-0.257177
-0.244498
-0.312281
-0.389138
0.215655
-2.78967
3.12797
-0.429162
0.439117
0.282072
0.23207
0.24796
0.239517
0.237869
0.229662
0.213759
0.190049
0.157839
0.118973
0.0743245
0.0266419
-0.0223519
-0.0696362
-0.113493
-0.151149
-0.181644
-0.203036
-0.216054
-0.221078
-0.219695
-0.225657
-0.208025
-0.257079
-0.413422
0.4543
-3.10202
3.42343
-0.672639
0.475343
0.220454
0.199983
0.217487
0.209984
0.210936
0.204658
0.191219
0.170555
0.141905
0.107178
0.067046
0.0241801
-0.0199424
-0.0624325
-0.101821
-0.135416
-0.162464
-0.180939
-0.191598
-0.194727
-0.190689
-0.195591
-0.176193
-0.195609
-0.449678
0.697803
-3.39757
3.69714
-0.913514
0.52091
0.153245
0.173236
0.188139
0.182603
0.186015
0.18162
0.17053
0.152726
0.12736
0.0964343
0.0604201
0.021942
-0.0177529
-0.0558765
-0.0911926
-0.121061
-0.144935
-0.160682
-0.169109
-0.170409
-0.163872
-0.166695
-0.149744
-0.128579
-0.495304
0.938708
-3.67136
3.94529
-1.14517
0.572674
0.0816636
0.152245
0.159619
0.157501
0.163009
0.160471
0.151587
0.136457
0.114106
0.086664
0.0543964
0.0199103
-0.0157659
-0.0499175
-0.0815293
-0.107985
-0.12895
-0.142158
-0.148509
-0.148023
-0.139371
-0.138675
-0.1291
-0.0572133
-0.547164
1.17038
-3.91961
4.16527
-1.36209
0.627296
0.00734186
0.137077
0.131673
0.134794
0.141799
0.14114
0.134288
0.12165
0.102051
0.0777948
0.0489283
0.0180693
-0.0139655
-0.0445087
-0.0727591
-0.096096
-0.114411
-0.125262
-0.12972
-0.127446
-0.117299
-0.111277
-0.11433
0.0168519
-0.601925
1.38732
-4.13968
4.35555
-1.56007
0.681552
-0.0678188
0.127452
0.104127
0.114569
0.122255
0.123556
0.118528
0.108209
0.0911095
0.0697594
0.0439726
0.0164041
-0.0123369
-0.0396072
-0.0648148
-0.0853073
-0.10122
-0.109887
-0.112669
-0.108543
-0.0977387
-0.0843281
-0.105159
0.0917096
-0.656368
1.58528
-4.33006
4.51561
-1.73619
0.732581
-0.141814
0.122789
0.0769152
0.0968709
0.104238
0.107651
0.104208
0.0960453
0.0811991
0.0624954
0.0394894
0.0149012
-0.0108665
-0.035173
-0.0576342
-0.0755377
-0.0892898
-0.0959306
-0.0972811
-0.0911698
-0.0807331
-0.0577591
-0.10101
0.165351
-0.707638
1.76135
-4.49023
4.64577
-1.88879
0.778069
-0.212703
0.122269
0.0500873
0.0816938
0.0876142
0.0933582
0.0912254
0.0850755
0.0722433
0.0559449
0.0354417
0.0135482
-0.0095418
-0.0311691
-0.0511595
-0.0667107
-0.0785345
-0.0832894
-0.0834858
-0.0751858
-0.0662687
-0.0316178
-0.101065
0.235831
-0.753423
1.91386
-4.62051
4.74701
-2.01728
0.81633
-0.278755
0.124925
0.0238063
0.0689696
0.0722603
0.0806087
0.0794845
0.075219
0.06417
0.0500535
0.031795
0.0123334
-0.00835126
-0.0275613
-0.0453367
-0.0587545
-0.0688743
-0.071865
-0.0712105
-0.060461
-0.0542714
-0.006062
-0.104357
0.301412
-0.792046
2.04221
-4.7219
4.82079
-2.12199
0.846332
-0.338553
0.129731
-0.0016731
0.0585692
0.0580695
0.0693316
0.0688904
0.0664
0.0569109
0.0447707
0.0285174
0.0112459
-0.00728414
-0.0243178
-0.0401155
-0.0516013
-0.0602336
-0.0615622
-0.0603805
-0.0468819
-0.0446042
0.0186595
-0.109857
0.360679
-0.822475
2.14671
-4.79587
4.86892
-2.20389
0.867641
-0.391067
0.135688
-0.0260336
0.050306
0.0449563
0.0594512
0.0593535
0.058546
0.0504018
0.0400491
0.0255791
0.0102756
-0.00633049
-0.0214088
-0.0354491
-0.0451876
-0.0525406
-0.0522907
-0.0509171
-0.0343567
-0.0370722
0.0422371
-0.116563
0.412599
-0.844282
2.22833
-4.84421
4.89338
-2.26444
0.880334
-0.43567
0.141894
-0.0489303
0.0439463
0.0328583
0.0508855
0.0507891
0.0515878
0.0445824
0.0358445
0.0229523
0.00941328
-0.00548104
-0.018807
-0.0312933
-0.0394538
-0.0457271
-0.0439662
-0.0427362
-0.0228171
-0.031433
0.0643348
-0.123566
0.456546
-0.857542
2.28855
-4.86895
4.89627
-2.30541
0.884878
-0.472127
0.147598
-0.0700258
0.0392231
0.0217357
0.0435457
0.0431186
0.045459
0.039396
0.0321153
0.0206111
0.00864998
-0.00472717
-0.0164866
-0.0276073
-0.0343439
-0.0397275
-0.0365105
-0.0357475
-0.0122183
-0.027411
0.0846253
-0.130107
0.492286
-0.862726
2.32909
-4.87216
4.87969
-2.32867
0.882014
-0.50054
0.152227
-0.0890218
0.0358521
0.011568
0.0373362
0.0362698
0.0400954
0.0347897
0.0288225
0.0185313
0.00797747
-0.00406082
-0.0144237
-0.0243522
-0.0298057
-0.0344791
-0.0298527
-0.0298551
-0.00253557
-0.0247134
0.102821
-0.135605
0.519928
-0.860572
2.35185
-4.85597
4.84571
-2.33618
0.872642
-0.52129
0.155398
-0.105684
0.0335479
0.00234936
0.0321555
0.0301773
0.0354351
0.030714
0.0259293
0.0166907
0.007388
-0.00347444
-0.0125962
-0.0214918
-0.0257905
-0.0299211
-0.0239289
-0.0249577
0.00623966
-0.0230476
0.118698
-0.139662
0.53986
-0.851977
2.35879
-4.82245
4.79633
-2.32984
0.857732
-0.534959
0.156903
-0.119856
0.0320398
-0.00591692
0.0278979
0.0247821
0.0314178
0.0271229
0.023401
0.0150681
0.00687429
-0.00296096
-0.0109833
-0.0189918
-0.022253
-0.0259947
-0.0186821
-0.020951
0.0141057
-0.0221363
0.13211
-0.14206
0.552674
-0.837906
2.35179
-4.77361
4.73345
-2.31146
0.838254
-0.542259
0.15669
-0.131467
0.0310832
-0.0132247
0.0244557
0.0200318
0.0279853
0.0239737
0.0212052
0.0136441
0.00642946
-0.00251375
-0.00956598
-0.01682
-0.0191512
-0.0226429
-0.0140617
-0.0177293
0.0210568
-0.02173
0.142998
-0.142734
0.559095
-0.819321
2.33269
-4.71134
4.65886
-2.28277
0.815127
-0.54397
0.154831
-0.140531
0.0304688
-0.0195703
0.0217218
0.0158792
0.0250812
0.0212267
0.0193108
0.0124006
0.00604704
-0.00212657
-0.00832623
-0.0149459
-0.0164462
-0.0198105
-0.0100227
-0.0151878
0.0270882
-0.0216163
0.151383
-0.141741
0.559914
-0.79713
2.30321
-4.63743
4.57421
-2.24536
0.789196
-0.540887
0.15149
-0.147135
0.0300272
-0.0249578
0.0195924
0.0122819
0.0226507
0.0188455
0.017689
0.0113207
0.00572092
-0.00179356
-0.00724753
-0.0133408
-0.014102
-0.0174442
-0.00652499
-0.0132256
0.0322019
-0.0216241
0.157359
-0.139233
0.555941
-0.772165
2.26496
-4.55354
4.48104
-2.20068
0.761212
-0.533779
0.146886
-0.151432
0.0296303
-0.0294017
0.0179692
0.00920126
0.0206418
0.0167964
0.016312
0.0103889
0.0054453
-0.00150916
-0.00631452
-0.0119776
-0.0120855
-0.0154926
-0.00353183
-0.0117473
0.0364095
-0.0216254
0.161083
-0.13542
0.547959
-0.745165
2.21939
-4.46119
4.38073
-2.15006
0.731835
-0.523367
0.141269
-0.153617
0.0291888
-0.0329296
0.0167614
0.00660129
0.0190043
0.0150482
0.0151542
0.00959057
0.00521476
-0.00126819
-0.00551296
-0.0108307
-0.0103661
-0.0139068
-0.00100919
-0.0106655
0.0397348
-0.0215328
0.162755
-0.130541
0.536702
-0.716775
2.16785
-4.36176
4.27454
-2.09468
0.70163
-0.510305
0.134896
-0.153921
0.0286488
-0.0355821
0.0158877
0.00444787
0.0176912
0.013572
0.0141911
0.00891229
0.00502418
-0.00106576
-0.00482964
-0.00987599
-0.00891516
-0.0126404
0.00107533
-0.00990161
0.0422145
-0.0212952
0.162603
-0.124846
0.522837
-0.687544
2.11154
-4.25648
4.16357
-2.0356
0.671078
-0.495175
0.128011
-0.152589
0.0279851
-0.0374127
0.0152765
0.00270793
0.0166582
0.0123411
0.0133998
0.00834158
0.00486875
-0.0008973
-0.00425233
-0.00909096
-0.00770652
-0.0116498
0.00275338
-0.00938692
0.0438976
-0.0208916
0.160874
-0.118577
0.506957
-0.65794
2.05153
-4.14646
4.04878
-1.97375
0.640578
-0.478488
0.120838
-0.149871
0.0271955
-0.0384854
0.0148668
0.0013488
0.0158641
0.0113307
0.0127591
0.00786689
0.00474396
-0.000758516
-0.00376973
-0.0084545
-0.00671565
-0.0108945
0.00405636
-0.00906289
0.0448442
-0.0203245
0.157812
-0.111953
0.489578
-0.628347
1.98875
-4.03265
3.93103
-1.90991
0.610457
-0.46068
0.113567
-0.146009
0.026294
-0.0388731
0.0146078
0.000337758
0.0152715
0.0105177
0.0122489
0.00747752
0.00464559
-0.000645422
-0.00337138
-0.00794696
-0.00591969
-0.0103373
0.00501601
-0.0088808
0.0451231
-0.0196129
0.153657
-0.105167
0.471143
-0.599083
1.92402
-3.91586
3.81102
-1.84476
0.580975
-0.442123
0.106361
-0.141233
0.0253051
-0.0386543
0.0144581
-0.000358019
0.0148459
0.0098803
0.0118509
0.00716354
0.00456974
-0.000554313
-0.00304756
-0.00755014
-0.00529725
-0.00994428
0.00566434
-0.00880113
0.0448094
-0.0187863
0.148631
-0.0983841
0.452027
-0.570398
1.85801
-3.7968
3.68935
-1.77886
0.552333
-0.423129
0.0993462
-0.135752
0.0242587
-0.0379105
0.0143852
-0.000771603
0.0145566
0.00939817
0.0115482
0.00691579
0.0045128
-0.000481777
-0.00278933
-0.00724733
-0.0048282
-0.00968498
0.00603381
-0.00879255
0.0439817
-0.0178795
0.14294
-0.0917353
0.43254
-0.542488
1.79132
-3.67606
3.56653
-1.71268
0.524677
-0.403956
0.0926202
-0.129754
0.0231858
-0.0367239
0.0143638
-0.000936199
0.0143764
0.00905215
0.0113251
0.00672576
0.00447145
-0.000424686
-0.00258839
-0.00702315
-0.00449363
-0.00953236
0.00615715
-0.00883096
0.0427193
-0.0169278
0.136764
-0.0853235
0.412936
-0.515496
1.7244
-3.55412
3.44297
-1.64658
0.498106
-0.384812
0.0862521
-0.123403
0.0221157
-0.0351744
0.0143749
-0.000884732
0.014281
0.00882422
0.0111675
0.0065856
0.00444267
-0.000380198
-0.00243708
-0.00686371
-0.00427573
-0.00946255
0.00606693
-0.00889803
0.0411007
-0.0159643
0.130261
-0.0792242
0.393422
-0.489521
1.65763
-3.43139
3.31899
-1.58087
0.472681
-0.365867
0.0802865
-0.11684
0.0210739
-0.0333384
0.0144042
-0.000649615
0.0142497
0.00869735
0.0110627
0.00648807
0.00442372
-0.000345748
-0.00232833
-0.00675646
-0.00415771
-0.00945484
0.00579527
-0.00898021
0.0392004
-0.0150176
0.123568
-0.0734887
0.374159
-0.464624
1.5913
-3.30818
3.19485
-1.51575
0.448422
-0.347249
0.0747476
-0.110183
0.0200807
-0.0312871
0.0144416
-0.000262406
0.0142644
0.00865562
0.0109992
0.00642648
0.00441219
-0.000319068
-0.00225564
-0.00669018
-0.00412384
-0.00949146
0.00537353
-0.00906758
0.0370886
-0.0141104
0.116797
-0.0681472
0.35527
-0.440831
1.52565
-3.18475
3.07076
-1.45138
0.425326
-0.32906
0.0696421
-0.103529
0.0191504
-0.0290852
0.0144794
0.000246754
0.0143098
0.00868412
0.0109671
0.0063947
0.00440593
-0.000298155
-0.00221301
-0.00665496
-0.0041594
-0.00955723
0.00483165
-0.0091528
0.0348293
-0.0132592
0.110043
-0.0632121
0.336849
-0.418142
1.46081
-3.0613
2.94685
-1.38789
0.403361
-0.31137
0.0649628
-0.0969591
0.018292
-0.0267908
0.0145118
0.000849392
0.0143729
0.00876899
0.0109575
0.00638717
0.00440302
-0.000281226
-0.00219503
-0.00664214
-0.00425071
-0.00963942
0.00419797
-0.00923038
0.03248
-0.0124742
0.103383
-0.0586814
0.31896
-0.396532
1.3969
-2.93797
2.82325
-1.32532
0.382477
-0.294228
0.0606917
-0.090535
0.0175089
-0.0244548
0.0145347
0.00151899
0.0144432
0.00889746
0.0109627
0.0063988
0.00440188
-0.00026681
-0.00219675
-0.00664422
-0.00438518
-0.00972755
0.00349885
-0.00929607
0.0300913
-0.0117599
0.096876
-0.0545412
0.301647
-0.375956
1.33398
-2.81488
2.70001
-1.26372
0.36261
-0.277665
0.0568022
-0.084306
0.0167995
-0.0221212
0.0145441
0.00223143
0.0145119
0.00905795
0.0109762
0.00642504
0.00440117
-0.000253674
-0.00221374
-0.00665486
-0.00455138
-0.00981298
0.00275824
-0.00934631
0.0277069
-0.0111155
0.09057
-0.0507681
0.284935
-0.356355
1.27207
-2.69209
2.57718
-1.20307
0.343681
-0.261696
0.0532614
-0.0783091
0.0161586
-0.0198269
0.0145371
0.00296508
0.0145718
0.00923998
0.0109928
0.00646182
0.00439978
-0.000240817
-0.00224202
-0.00666881
-0.00473898
-0.00988889
0.00199767
-0.00937805
0.0253637
-0.0105359
0.0845007
-0.047332
0.268834
-0.337656
1.21116
-2.56965
2.45478
-1.14336
0.325604
-0.246322
0.0500319
-0.0725712
0.0155773
-0.0176025
0.0145106
0.00370091
0.0146178
0.00943434
0.0110079
0.00650561
0.00439686
-0.00022746
-0.00227816
-0.0066818
-0.00493892
-0.00995005
0.00123598
-0.00938851
0.0230922
-0.010013
0.0786941
-0.0441971
0.253342
-0.319778
1.15122
-2.44758
2.33278
-1.08453
0.308286
-0.231534
0.0470731
-0.0671111
0.0150448
-0.0154726
0.014462
0.00442276
0.0146456
0.00963311
0.0110183
0.00655335
0.00439178
-0.000213046
-0.0023192
-0.00669056
-0.00514338
-0.00999255
0.000489244
-0.00937513
0.0209169
-0.0095358
0.0731683
-0.0413246
0.238447
-0.302632
1.0922
-2.32588
2.21119
-1.02654
0.291631
-0.217318
0.044343
-0.0619408
0.0145484
-0.0134563
0.014389
0.00511714
0.0146527
0.00982961
0.0110215
0.00660253
0.00438411
-0.000197212
-0.00236269
-0.00669273
-0.00534581
-0.0100139
-0.000229224
-0.00933569
0.0188567
-0.00909192
0.0679349
-0.0386731
0.224132
-0.286122
1.03404
-2.20454
2.08997
-0.9693
0.275537
-0.203651
0.0417983
-0.0570668
0.0140748
-0.0115679
0.0142896
0.00577338
0.0146377
0.0100185
0.0110158
0.00665112
0.00437363
-0.000179791
-0.00240666
-0.0066868
-0.005541
-0.0100127
-0.000908865
-0.00926836
0.0169259
-0.00866809
0.0630002
-0.0362002
0.210375
-0.270152
0.976654
-2.08354
1.96908
-0.91274
0.259905
-0.19051
0.0393961
-0.0524915
0.0136106
-0.00981693
0.0141623
0.0063836
0.0146001
0.0101959
0.0110006
0.00669763
0.0043603
-0.000160796
-0.00244968
-0.00667213
-0.00572507
-0.00998894
-0.00154193
-0.00917189
0.015134
-0.00825099
0.0583665
-0.0338632
0.197148
-0.254623
0.919966
-1.96284
1.84849
-0.856781
0.244632
-0.177868
0.0370943
-0.0482141
0.0131428
-0.00820932
0.0140068
0.00694249
0.0145409
0.010359
0.0109759
0.00674105
0.00434428
-0.000140408
-0.00249078
-0.00664887
-0.00589544
-0.00994347
-0.00212322
-0.00904588
0.0134866
-0.00782784
0.0540327
-0.0316203
0.184426
-0.239435
0.863892
-1.8424
1.72816
-0.801344
0.229621
-0.1657
0.0348522
-0.0442312
0.0126598
-0.00674724
0.0138233
0.00744735
0.0144622
0.0105067
0.0109427
0.00678094
0.00432586
-0.000118963
-0.00252955
-0.00661793
-0.00605092
-0.0098785
-0.00265017
-0.0088909
0.0119861
-0.00738704
0.0499954
-0.0294311
0.172181
-0.224491
0.808352
-1.7222
1.60807
-0.746361
0.214776
-0.153984
0.0326314
-0.0405381
0.0121516
-0.00542974
0.0136137
0.00789802
0.014367
0.010639
0.0109024
0.00681731
0.00430552
-9.69699e-05
-0.00256605
-0.00658098
-0.00619163
-0.00979726
-0.00312269
-0.00870883
0.0106312
-0.00691874
0.0462496
-0.0272574
0.160392
-0.209697
0.753276
-1.60221
1.4882
-0.69178
0.200009
-0.142702
0.0303969
-0.0371289
0.0116105
-0.004253
0.0133811
0.00829667
0.0142599
0.0107572
0.0108577
0.00685072
0.00428391
-7.50786e-05
-0.00260085
-0.00654049
-0.00631899
-0.00970425
-0.00354306
-0.0085031
0.00941799
-0.00641538
0.0427894
-0.0250642
0.14904
-0.194965
0.698607
-1.48243
1.36856
-0.63757
0.18524
-0.131845
0.0281174
-0.0339974
0.0110318
-0.00321057
0.0131308
0.00864776
0.0141464
0.010864
0.0108114
0.00688226
0.00426173
-5.40237e-05
-0.00263508
-0.00649956
-0.00643575
-0.00960519
-0.00391583
-0.0082789
0.00834
-0.00587224
0.0396087
-0.0228207
0.138114
-0.180216
0.644317
-1.36286
1.24922
-0.583741
0.170403
-0.121414
0.0257675
-0.0311377
0.0104138
-0.00229349
0.0128698
0.00895801
0.0140334
0.0109636
0.0107675
0.00691352
0.00423991
-3.47408e-05
-0.00267034
-0.00646206
-0.00654599
-0.00950707
-0.00424778
-0.00804346
0.00738814
-0.00528801
0.0367012
-0.0205016
0.127617
-0.165386
0.590412
-1.24356
1.13028
-0.530357
0.155453
-0.111424
0.0233284
-0.0285447
0.00975913
-0.00149047
0.0126076
0.00923626
0.0139293
0.011061
0.0107305
0.00694656
0.00421947
-1.8279e-05
-0.00270869
-0.00643262
-0.00665496
-0.00941823
-0.00454782
-0.00780634
0.00655103
-0.00466537
0.0340617
-0.0180886
0.117563
-0.150429
0.536955
-1.12465
1.01196
-0.477559
0.14037
-0.101913
0.0207902
-0.0262139
0.00907493
-0.000787944
0.0123561
0.00949348
0.0138437
0.0111628
0.0107058
0.00698395
0.0042016
-5.81595e-06
-0.00275273
-0.00641658
-0.00676917
-0.00934843
-0.00482697
-0.00757961
0.00581503
-0.00401172
0.0316858
-0.0155722
0.107989
-0.135328
0.48409
-1.00634
0.894578
-0.425604
0.125173
-0.092938
0.0181538
-0.0241425
0.00837364
-0.000169986
0.01213
0.00974266
0.0137878
0.0112768
0.0106994
0.00702875
0.00418757
1.34585e-06
-0.00280554
-0.00641996
-0.00689643
-0.00930886
-0.00509828
-0.00737812
0.00516414
-0.00333973
0.0295704
-0.012954
0.0989529
-0.120103
0.432071
-0.888955
0.778694
-0.374905
0.10993
-0.084589
0.0154333
-0.0223283
0.00767364
0.000381829
0.0119471
0.0099989
0.0137742
0.0114119
0.010718
0.00708451
0.00417882
1.76392e-06
-0.00287068
-0.00644958
-0.00704567
-0.00931228
-0.00537688
-0.00721973
0.00457987
-0.00266805
0.0277136
-0.0102488
0.0905449
-0.104824
0.381312
-0.773052
0.665145
-0.326102
0.094776
-0.0769882
0.0126586
-0.0207701
0.00700002
0.000888543
0.0118283
0.0102793
0.0138173
0.0115781
0.0107692
0.00715524
0.00417688
-6.11579e-06
-0.00295216
-0.00651301
-0.00722695
-0.00937303
-0.0056799
-0.0071255
0.00404113
-0.00202208
0.0261138
-0.00748745
0.0828876
-0.0896271
0.332456
-0.659471
0.555214
-0.280137
0.07993
-0.0702921
0.00987783
-0.0194656
0.00638462
0.00137353
0.0117973
0.0106021
0.0139323
0.0117861
0.0108608
0.00724517
0.00418336
-2.38967e-05
-0.00305423
-0.00661807
-0.00745105
-0.00950637
-0.00602565
-0.00711915
0.00352453
-0.00143397
0.0247688
-0.0047191
0.076138
-0.0747356
0.286446
-0.549495
0.450763
-0.238249
0.0656568
-0.0646608
0.00714488
-0.0184031
0.00586219
0.00186468
0.0118791
0.010988
0.0141353
0.0120479
0.0110012
0.00735908
0.0041999
-5.31954e-05
-0.00318165
-0.00677309
-0.00772978
-0.00972834
-0.00643467
-0.00722567
0.00300217
-0.000938698
0.0236671
-0.00199866
0.0704569
-0.060417
0.244524
-0.444988
0.354225
-0.201985
0.0520741
-0.0602057
0.00447685
-0.017544
0.00546854
0.00240852
0.0121091
0.0114719
0.0144523
0.0123849
0.0112048
0.00750605
0.00422912
-9.68472e-05
-0.0033437
-0.00699281
-0.00808498
-0.0100653
-0.0069423
-0.0074808
0.00242713
-0.000572519
0.0227693
0.000655682
0.0659557
-0.0467922
0.208242
-0.348384
0.270066
-0.175243
0.0398327
-0.0573737
0.00203815
-0.016913
0.00530993
0.00305668
0.0125673
0.0121054
0.0149362
0.0128308
0.011499
0.00769952
0.00427665
-0.000161224
-0.0035546
-0.00730536
-0.00855113
-0.0105712
-0.00760123
-0.00796602
0.00174638
-0.000443925
0.0220986
0.00307585
0.0630804
-0.0345183
0.181504
-0.264149
0.212995
-0.169976
0.0353521
-0.0585945
0.00135075
-0.0170856
0.00572376
0.00357227
0.0132655
0.0127276
0.0155209
0.013275
0.0118297
0.0078872
0.0043366
-0.000238216
-0.0037598
-0.00765471
-0.00901531
-0.0111784
-0.00824798
-0.00869259
0.00120079
-0.000891951
0.0222384
0.00373074
0.0642764
-0.0300395
0.17627
-0.207005
0.000481289
-0.0561297
-0.030401
0.177361
0.452925
0.698773
0.913029
1.10991
1.27847
1.38478
1.39086
1.27136
1.02283
0.663899
0.231571
-0.226031
-0.656669
-1.01245
-1.25691
-1.3722
-1.36258
-1.25385
-1.084
-0.886652
-0.672323
-0.42649
-0.15091
0.0568603
0.08257
0.0259671
-0.00991265
-0.066
0.0107194
0.257512
0.525222
0.744389
0.932897
1.10385
1.24358
1.32122
1.30581
1.17871
0.93976
0.606531
0.211174
-0.205471
-0.599276
-0.929589
-1.16469
-1.28771
-1.29955
-1.21936
-1.07818
-0.906612
-0.717959
-0.498791
-0.231067
0.0157424
0.0924447
0.0363556
-0.0231277
-0.0660202
0.0657293
0.335317
0.58264
0.773276
0.936634
1.08174
1.19375
1.2458
1.21328
1.08279
0.856285
0.549858
0.191175
-0.185334
-0.542591
-0.846313
-1.06919
-1.19573
-1.22467
-1.16995
-1.05633
-0.91047
-0.74688
-0.556217
-0.308881
-0.0392689
0.0924696
0.0495699
-0.0387259
-0.0537407
0.131501
0.407991
0.628022
0.791593
0.932045
1.05378
1.14198
1.17348
1.12857
0.997495
0.78342
0.500924
0.173985
-0.168059
-0.493677
-0.773648
-0.984288
-1.11153
-1.15288
-1.11861
-1.02864
-0.906018
-0.765246
-0.601615
-0.381567
-0.105048
0.080193
0.06517
-0.0555618
-0.0268012
0.2065
0.47541
0.664106
0.802167
0.921134
1.02129
1.08853
1.10297
1.04878
0.918937
0.717263
0.456871
0.158563
-0.152587
-0.449667
-0.707694
-0.906107
-1.03224
-1.08287
-1.06558
-0.996433
-0.895261
-0.775884
-0.637723
-0.449006
-0.180063
0.0532521
0.0820084
-0.0714037
0.0167938
0.28729
0.535
0.690773
0.8053
0.904134
0.984492
1.0334
1.03375
0.972845
0.845677
0.656372
0.416639
0.144524
-0.138525
-0.409495
-0.647006
-0.833209
-0.956779
-1.01414
-1.01086
-0.959931
-0.878427
-0.779092
-0.664421
-0.508621
-0.260876
0.00964919
0.0978504
-0.083074
0.0777673
0.369347
0.58437
0.708061
0.801342
0.881523
0.94408
0.977253
0.96626
0.900873
0.777526
0.600418
0.379941
0.131756
-0.125756
-0.372868
-0.591254
-0.765406
-0.885261
-0.947135
-0.955133
-0.919816
-0.855993
-0.77522
-0.681747
-0.55802
-0.342962
-0.0513402
0.109516
-0.0865885
0.155214
0.447788
0.622113
0.716549
0.790865
0.853965
0.900838
0.920781
0.900902
0.832906
0.714254
0.54905
0.346477
0.120147
-0.114162
-0.339486
-0.540085
-0.702469
-0.817732
-0.882243
-0.89907
-0.876875
-0.828619
-0.764835
-0.690278
-0.595793
-0.421436
-0.12881
0.113021
-0.0773384
0.246475
0.517843
0.647763
0.717062
0.774463
0.822155
0.855499
0.864541
0.837929
0.768874
0.655554
0.501879
0.315937
0.109578
-0.103624
-0.309036
-0.493113
-0.644094
-0.754125
-0.819726
-0.843238
-0.83184
-0.796999
-0.748532
-0.690835
-0.621473
-0.491526
-0.220102
0.103754
-0.0503631
0.347159
0.575302
0.661712
0.710489
0.752726
0.786799
0.808739
0.809007
0.777522
0.708674
0.601129
0.45855
0.288044
0.0999481
-0.0940363
-0.28124
-0.449981
-0.589984
-0.69434
-0.759768
-0.78811
-0.785389
-0.76184
-0.7269
-0.684311
-0.635451
-0.549019
-0.32082
0.0767556
-0.000696236
0.451327
0.616942
0.665071
0.697693
0.726255
0.74861
0.761179
0.754578
0.719812
0.652188
0.550699
0.418744
0.262551
0.0911651
-0.0853049
-0.255849
-0.41037
-0.539864
-0.638259
-0.702502
-0.734088
-0.738142
-0.723854
-0.700539
-0.671564
-0.638836
-0.59069
-0.425023
0.0270612
0.0762455
0.551853
0.640868
0.659465
0.679428
0.69567
0.708292
0.713374
0.701587
0.664881
0.599283
0.504003
0.382171
0.239239
0.0831491
-0.0773478
-0.232643
-0.37399
-0.49347
-0.585753
-0.648013
-0.681507
-0.690657
-0.683746
-0.670069
-0.65335
-0.633253
-0.614642
-0.525584
-0.0499109
0.184267
0.640929
0.646719
0.646776
0.656309
0.661623
0.666519
0.665809
0.650299
0.612771
0.549818
0.46079
0.348567
0.217913
0.0758286
-0.0700918
-0.211426
-0.340577
-0.450555
-0.536681
-0.596343
-0.630635
-0.643422
-0.642192
-0.636142
-0.630284
-0.620584
-0.620513
-0.614693
-0.157963
0.326032
0.710666
0.635714
0.628873
0.628818
0.624806
0.623918
0.618901
0.600928
0.563491
0.503643
0.420828
0.317692
0.198397
0.0691399
-0.0634719
-0.192019
-0.309891
-0.410885
-0.490896
-0.547505
-0.581686
-0.596854
-0.599821
-0.599453
-0.602847
-0.602697
-0.609521
-0.684459
-0.299758
0.502772
0.753729
0.610535
0.607366
0.597342
0.585945
0.581052
0.573
0.553632
0.51702
0.460607
0.383897
0.289327
0.180532
0.0630263
-0.0574299
-0.174265
-0.281713
-0.374242
-0.448247
-0.501478
-0.534823
-0.551308
-0.557198
-0.560728
-0.571429
-0.581204
-0.584349
-0.727546
-0.476526
0.714096
0.763958
0.575055
0.583415
0.562244
0.545785
0.538408
0.528398
0.508528
0.473318
0.420559
0.349792
0.263275
0.164177
0.0574367
-0.0519138
-0.158021
-0.255843
-0.340419
-0.408583
-0.458224
-0.490163
-0.507077
-0.514813
-0.520715
-0.536395
-0.557266
-0.548869
-0.737793
-0.687875
0.957928
0.736882
0.533944
0.557617
0.523941
0.505064
0.496392
0.485331
0.465694
0.432324
0.383348
0.318321
0.239353
0.149204
0.0523258
-0.0468771
-0.143157
-0.232101
-0.309225
-0.371752
-0.417683
-0.447786
-0.4644
-0.473075
-0.480156
-0.498161
-0.531481
-0.507753
-0.710729
-0.931726
1.23057
0.670104
0.492204
0.529984
0.482969
0.464476
0.45533
0.443989
0.425173
0.393966
0.348825
0.289305
0.217396
0.135498
0.0476526
-0.0422782
-0.129558
-0.210318
-0.28048
-0.337607
-0.379781
-0.407737
-0.423469
-0.432313
-0.439747
-0.457269
-0.503864
-0.466003
-0.643957
-1.20438
1.52689
0.563494
0.454671
0.500011
0.440041
0.424632
0.415473
0.404523
0.386981