/*--------------------------------*- C++ -*----------------------------------*\
| =========                 |                                                 |
| \\      /  F ield         | OpenFOAM: The Open Source CFD Toolbox           |
|  \\    /   O peration     | Version:  5.x                                   |
|   \\  /    A nd           | Web:      www.OpenFOAM.org                      |
|    \\/     M anipulation  |                                                 |
\*---------------------------------------------------------------------------*/
FoamFile
{
    version     2.0;
    format      ascii;
    class       surfaceScalarField;
    location    "0.015";
    object      phi;
}
// * * * * * * * * * * * * * * * * * * * * * * * * * * * * * * * * * * * * * //

dimensions      [0 3 -1 0 0 0 0];

internalField   nonuniform List<scalar> 
14230
(
3.88819e-16
-1.99349e-16
-9.60298e-16
1.34916e-15
-8.61038e-15
7.65018e-15
-1.84239e-14
9.81374e-15
-1.98037e-14
1.38014e-15
1.14273e-15
-2.09458e-14
6.08137e-14
-5.967e-14
1.76044e-13
-1.15229e-13
3.58253e-13
-1.82208e-13
6.05249e-13
-2.46995e-13
8.96366e-13
-2.91116e-13
1.19429e-12
-2.97921e-13
1.45307e-12
-2.5878e-13
1.62902e-12
-1.75953e-13
1.69115e-12
-6.21259e-14
1.62831e-12
6.28356e-14
1.45183e-12
1.76482e-13
1.19282e-12
2.59015e-13
8.94964e-13
2.97851e-13
6.04138e-13
2.90826e-13
3.57516e-13
2.46621e-13
1.75639e-13
1.81876e-13
6.06307e-14
1.15007e-13
1.073e-15
5.95566e-14
-1.98281e-14
2.09002e-14
-1.84298e-14
-1.39889e-15
-8.60659e-15
-9.82333e-15
-9.56817e-16
-7.64969e-15
3.89106e-16
-1.34578e-15
1.82425e-16
2.06717e-16
4.90849e-17
2.82971e-16
-6.23947e-15
7.63778e-15
-2.33749e-14
2.47857e-14
-3.81272e-14
2.45664e-14
-1.83952e-14
-1.83514e-14
7.91503e-14
-1.18491e-13
2.99197e-13
-2.79716e-13
6.79948e-13
-4.95979e-13
1.23897e-12
-7.41228e-13
1.95656e-12
-9.64579e-13
2.76894e-12
-1.1035e-12
3.57649e-12
-1.10547e-12
4.26402e-12
-9.46311e-13
4.72568e-12
-6.37615e-13
4.88773e-12
-2.24174e-13
4.7239e-12
2.26662e-13
4.26088e-12
6.39504e-13
3.57269e-12
9.47211e-13
2.76521e-12
1.10533e-12
1.95347e-12
1.10256e-12
1.2368e-12
9.63294e-13
6.78656e-13
7.4002e-13
2.98551e-13
4.9511e-13
7.88757e-14
2.7923e-13
-1.84995e-14
1.18274e-13
-3.81622e-14
1.82633e-14
-2.33805e-14
-2.46051e-14
-6.23794e-15
-2.47921e-14
4.77898e-17
-7.63133e-15
-2.97161e-16
5.27398e-16
-1.46985e-15
2.30821e-15
-1.52261e-14
2.13941e-14
-4.208e-14
5.16397e-14
-5.08895e-14
3.33762e-14
1.74375e-14
-8.6678e-14
2.31146e-13
-3.32198e-13
6.53836e-13
-7.02405e-13
1.33319e-12
-1.17533e-12
2.27965e-12
-1.68768e-12
3.44674e-12
-2.13167e-12
4.72796e-12
-2.38471e-12
5.97276e-12
-2.35027e-12
7.01561e-12
-1.98917e-12
7.70876e-12
-1.33076e-12
7.95089e-12
-4.66303e-13
7.70619e-12
4.71363e-13
7.01103e-12
1.33467e-12
5.9671e-12
1.99114e-12
4.72226e-12
2.35016e-12
3.44185e-12
2.38297e-12
2.27604e-12
2.1291e-12
1.3309e-12
1.68515e-12
6.52601e-13
1.17341e-12
2.30576e-13
7.01254e-13
1.72041e-14
3.31646e-13
-5.09758e-14
8.64428e-14
-4.21015e-14
-3.34794e-14
-1.52242e-14
-5.16691e-14
-1.47055e-15
-2.13848e-14
-2.31868e-15
5.50974e-16
-4.99455e-15
7.26799e-15
-2.85368e-14
4.49364e-14
-6.02872e-14
8.33903e-14
-4.39078e-14
1.69969e-14
1.05562e-13
-2.36147e-13
4.74385e-13
-7.01021e-13
1.1366e-12
-1.36462e-12
2.13875e-12
-2.17748e-12
3.47377e-12
-3.0227e-12
5.06343e-12
-3.72133e-12
6.76194e-12
-4.08323e-12
8.37905e-12
-3.96738e-12
9.71451e-12
-3.32462e-12
1.05941e-11
-2.21032e-12
1.09e-11
-7.72224e-13
1.05909e-11
7.80424e-13
9.70885e-12
2.21674e-12
8.37195e-12
3.32804e-12
6.75461e-12
3.9675e-12
5.05693e-12
4.08066e-12
3.46875e-12
3.71728e-12
2.1354e-12
3.01851e-12
1.13467e-12
2.17414e-12
4.73432e-13
1.36249e-12
1.05145e-13
6.99932e-13
-4.40733e-14
2.35661e-13
-6.03387e-14
-1.72137e-14
-2.85407e-14
-8.34669e-14
-4.99376e-15
-4.49316e-14
-7.27424e-15
-3.82292e-17
-1.13951e-14
1.67764e-14
-4.52075e-14
7.87489e-14
-7.15166e-14
1.097e-13
-5.19784e-15
-4.93218e-14
2.59868e-13
-5.01213e-13
8.20587e-13
-1.26174e-12
1.75333e-12
-2.29736e-12
3.0941e-12
-3.51826e-12
4.81106e-12
-4.73966e-12
6.79276e-12
-5.70303e-12
8.85939e-12
-6.14985e-12
1.07914e-11
-5.89936e-12
1.23663e-11
-4.89952e-12
1.3395e-11
-3.23902e-12
1.37514e-11
-1.12863e-12
1.33915e-11
1.14035e-12
1.23599e-11
3.24832e-12
1.07832e-11
4.90471e-12
8.85076e-12
5.89994e-12
6.78487e-12
6.14654e-12
4.80473e-12
5.69741e-12
3.08967e-12
4.73357e-12
1.75063e-12
3.51317e-12
8.19166e-13
2.29396e-12
2.59209e-13
1.25989e-12
-5.47493e-15
5.00345e-13
-7.16147e-14
4.89263e-14
-4.52249e-14
-1.09856e-13
-1.13942e-14
-7.87622e-14
-1.67797e-14
-1.88873e-15
-2.12335e-14
3.22592e-14
-6.28086e-14
1.20324e-13
-6.7702e-14
1.14593e-13
7.75631e-14
-1.94587e-13
4.93326e-13
-9.16976e-13
1.27983e-12
-2.04824e-12
2.50815e-12
-3.52568e-12
4.19596e-12
-5.20607e-12
6.28222e-12
-6.82591e-12
8.62339e-12
-8.0442e-12
1.10118e-11
-8.53826e-12
1.32078e-11
-8.09539e-12
1.49769e-11
-6.66857e-12
1.61237e-11
-4.38581e-12
1.65196e-11
-1.52453e-12
1.61199e-11
1.53999e-12
1.497e-11
4.39824e-12
1.31989e-11
6.6758e-12
1.10022e-11
8.09668e-12
8.61434e-12
8.53438e-12
6.27471e-12
8.03705e-12
4.19046e-12
6.81782e-12
2.50462e-12
5.19901e-12
1.27786e-12
3.52071e-12
4.92362e-13
2.04539e-12
7.71356e-14
9.15572e-13
-6.7868e-14
1.9393e-13
-6.28504e-14
-1.14874e-13
-2.12356e-14
-1.20377e-13
-3.22637e-14
-5.75166e-15
-3.44304e-14
5.43657e-14
-7.70986e-14
1.62992e-13
-3.88938e-14
7.63884e-14
2.17483e-13
-4.50963e-13
8.18487e-13
-1.51798e-12
1.86095e-12
-3.09071e-12
3.40376e-12
-5.06849e-12
5.4403e-12
-7.24261e-12
7.87844e-12
-9.26405e-12
1.05455e-11
-1.07113e-11
1.32125e-11
-1.12052e-11
1.56277e-11
-1.05106e-11
1.75522e-11
-8.59315e-12
1.87912e-11
-5.62474e-12
1.92175e-11
-1.95084e-12
1.87873e-11
1.97016e-12
1.75451e-11
5.64045e-12
1.56183e-11
8.60262e-12
1.32021e-11
1.05128e-11
1.05356e-11
1.1201e-11
7.86989e-12
1.07027e-11
5.43378e-12
9.25393e-12
3.39938e-12
7.23341e-12
1.85837e-12
5.06172e-12
8.17154e-13
3.08661e-12
2.16861e-13
1.51586e-12
-3.91535e-14
4.49945e-13
-7.71788e-14
-7.68482e-14
-3.44406e-14
-1.63115e-13
-5.43792e-14
-1.23252e-14
-4.98554e-14
8.22118e-14
-8.17328e-14
1.9487e-13
2.66086e-14
-3.1953e-14
4.28119e-13
-8.52474e-13
1.2472e-12
-2.33706e-12
2.5714e-12
-4.4149e-12
4.44147e-12
-6.93856e-12
6.82242e-12
-9.62356e-12
9.59134e-12
-1.2033e-11
1.25506e-11
-1.36705e-11
1.5456e-11
-1.41106e-11
1.80508e-11
-1.31054e-11
2.0098e-11
-1.06403e-11
2.14074e-11
-6.93413e-12
2.18566e-11
-2.40006e-12
2.14035e-11
2.42321e-12
2.00908e-11
6.95316e-12
1.80413e-11
1.06522e-11
1.54453e-11
1.31088e-11
1.25399e-11
1.41063e-11
9.58192e-12
1.36607e-11
6.81496e-12
1.20209e-11
4.43623e-12
9.61214e-12
2.56816e-12
6.92979e-12
1.24544e-12
4.40932e-12
4.27256e-13
2.33405e-12
2.62249e-14
8.50976e-13
-8.18692e-14
3.12461e-14
-4.98818e-14
-1.95102e-13
-8.22471e-14
-2.20139e-14
-6.48869e-14
1.12508e-13
-6.80997e-14
1.98083e-13
1.41944e-13
-2.41997e-13
7.23066e-13
-1.4336e-12
1.79037e-12
-3.40436e-12
3.41719e-12
-6.04173e-12
5.62131e-12
-9.14268e-12
8.33717e-12
-1.23394e-11
1.14131e-11
-1.51089e-11
1.46312e-11
-1.68886e-11
1.77383e-11
-1.72177e-11
2.0478e-11
-1.58451e-11
2.26196e-11
-1.27819e-11
2.39813e-11
-8.29585e-12
2.44472e-11
-2.86595e-12
2.39776e-11
2.89283e-12
2.26126e-11
8.31818e-12
2.04685e-11
1.27963e-11
1.77274e-11
1.58499e-11
1.46201e-11
1.72136e-11
1.1403e-11
1.68779e-11
8.32887e-12
1.5095e-11
5.61522e-12
1.23258e-11
3.41326e-12
9.13176e-12
1.78812e-12
6.03446e-12
7.21911e-13
3.40025e-12
1.41403e-13
1.43148e-12
-6.83139e-14
2.40963e-13
-6.49405e-14
-1.98476e-13
-1.12584e-13
-3.4604e-14
-7.49873e-14
1.3865e-13
-2.52998e-14
1.48395e-13
3.21313e-13
-5.8861e-13
1.11561e-12
-2.22789e-12
2.45776e-12
-4.74652e-12
4.40297e-12
-7.98693e-12
6.94225e-12
-1.1682e-11
9.97915e-12
-1.53763e-11
1.33364e-11
-1.84661e-11
1.67811e-11
-2.03333e-11
2.00561e-11
-2.04928e-11
2.29101e-11
-1.86992e-11
2.51223e-11
-1.49941e-11
2.65211e-11
-9.6947e-12
2.69985e-11
-3.34333e-12
2.65176e-11
3.37379e-12
2.51155e-11
9.72024e-12
2.29008e-11
1.50109e-11
2.00452e-11
1.87055e-11
1.67698e-11
2.04891e-11
1.33258e-11
2.03219e-11
9.97013e-12
1.84506e-11
6.93538e-12
1.53605e-11
4.39832e-12
1.16688e-11
2.45498e-12
7.97781e-12
1.11411e-12
4.74112e-12
3.20577e-13
2.22502e-12
-2.56171e-14
5.87157e-13
-7.50824e-14
-1.4901e-13
-1.38792e-13
-4.88739e-14
-7.334e-14
1.49876e-13
5.97262e-14
1.53293e-14
5.79552e-13
-1.10844e-12
1.61843e-12
-3.26677e-12
3.25799e-12
-6.38607e-12
5.53204e-12
-1.0261e-11
8.4024e-12
-1.45523e-11
1.17429e-11
-1.87168e-11
1.53547e-11
-2.20779e-11
1.89949e-11
-2.39735e-11
2.24072e-11
-2.39051e-11
2.53488e-11
-2.16408e-11
2.7611e-11
-1.72562e-11
2.90342e-11
-1.11179e-11
2.95188e-11
-3.82791e-12
2.90309e-11
3.86172e-12
2.76046e-11
1.11465e-11
2.53399e-11
1.72756e-11
2.23966e-11
2.16488e-11
1.89836e-11
2.39021e-11
1.53438e-11
2.39617e-11
1.17333e-11
2.20611e-11
8.39482e-12
1.8699e-11
5.52669e-12
1.45369e-11
3.25464e-12
1.02499e-11
1.61655e-12
6.37921e-12
5.78582e-13
3.26299e-12
5.92774e-14
1.10646e-12
-7.34945e-14
-1.62385e-14
-1.50118e-13
-6.21691e-14
-5.05911e-14
1.30585e-13
2.0192e-13
-2.37182e-13
9.31694e-13
-1.83821e-12
2.24339e-12
-4.57847e-12
4.19838e-12
-8.34106e-12
6.80651e-12
-1.28691e-11
9.99916e-12
-1.7745e-11
1.3623e-11
-2.23407e-11
1.74622e-11
-2.59171e-11
2.12683e-11
-2.77796e-11
2.479e-11
-2.74268e-11
2.77957e-11
-2.46464e-11
3.00904e-11
-1.95509e-11
3.15272e-11
-1.25548e-11
3.20154e-11
-4.31609e-12
3.15242e-11
4.35299e-12
3.00844e-11
1.25863e-11
2.77873e-11
1.95727e-11
2.47798e-11
2.46563e-11
2.12572e-11
2.74247e-11
1.74511e-11
2.77678e-11
1.3613e-11
2.58992e-11
9.99096e-12
2.2321e-11
6.80048e-12
1.77274e-11
4.19445e-12
1.28559e-11
2.24109e-12
8.33257e-12
9.30452e-13
4.57363e-12
2.01309e-13
1.8356e-12
-5.08262e-14
2.35897e-13
-1.30966e-13
-6.99779e-14
5.26602e-15
5.99213e-14
4.17695e-13
-6.49611e-13
1.39253e-12
-2.81305e-12
3.00133e-12
-6.18727e-12
5.28502e-12
-1.06248e-11
8.22733e-12
-1.58114e-11
1.17294e-11
-2.1247e-11
1.56142e-11
-2.62254e-11
1.96534e-11
-2.99563e-11
2.35977e-11
-3.1724e-11
2.72036e-11
-3.10327e-11
3.02527e-11
-2.76955e-11
3.25648e-11
-2.18631e-11
3.40063e-11
-1.39963e-11
3.44951e-11
-4.80487e-12
3.40035e-11
4.84457e-12
3.25594e-11
1.40305e-11
3.02449e-11
2.18872e-11
2.71939e-11
2.77072e-11
2.3587e-11
3.10317e-11
1.96424e-11
3.17123e-11
1.56039e-11
2.99377e-11
1.17207e-11
2.62043e-11
8.22069e-12
2.12274e-11
5.2805e-12
1.57961e-11
2.99857e-12
1.06145e-11
1.39098e-12
6.18122e-12
4.1689e-13
2.8097e-12
4.9261e-15
6.47861e-13
-6.0491e-14
-6.55489e-14
1.08836e-13
-8.82833e-14
7.24425e-13
-1.2652e-12
1.97624e-12
-4.06486e-12
3.90192e-12
-8.11295e-12
6.52273e-12
-1.32456e-11
9.79451e-12
-1.90832e-11
1.35896e-11
-2.50421e-11
1.77114e-11
-3.03473e-11
2.19238e-11
-3.41687e-11
2.59801e-11
-3.57802e-11
2.96473e-11
-3.46999e-11
3.27218e-11
-3.07699e-11
3.50385e-11
-2.41799e-11
3.6477e-11
-1.54348e-11
3.69639e-11
-5.29175e-12
3.64746e-11
5.33392e-12
3.50337e-11
1.54714e-11
3.27147e-11
2.42062e-11
2.96384e-11
3.07835e-11
2.59699e-11
3.47002e-11
2.19131e-11
3.57691e-11
1.77011e-11
3.41497e-11
1.35805e-11
3.03248e-11
9.78732e-12
2.50206e-11
6.51763e-12
1.90658e-11
3.89868e-12
1.32334e-11
1.97435e-12
8.10555e-12
7.23394e-13
4.06065e-12
1.08365e-13
1.26289e-12
8.74693e-14
-3.95949e-14
2.77089e-13
-3.45172e-13
1.13986e-12
-2.12797e-12
2.69604e-12
-5.62103e-12
4.95365e-12
-1.03706e-11
7.9151e-12
-1.6207e-11
1.15072e-11
-2.26753e-11
1.5576e-11
-2.9111e-11
1.99101e-11
-3.46813e-11
2.42694e-11
-3.8528e-11
2.84132e-11
-3.99241e-11
3.21212e-11
-3.84078e-11
3.5205e-11
-3.38538e-11
3.75154e-11
-2.64902e-11
3.89444e-11
-1.68638e-11
3.94272e-11
-5.77461e-12
3.89422e-11
5.81892e-12
3.75111e-11
1.69025e-11
3.51987e-11
2.65186e-11
3.2113e-11
3.38691e-11
2.84036e-11
3.84096e-11
2.4259e-11
3.99138e-11
1.98998e-11
3.85089e-11
1.55667e-11
3.46579e-11
1.14995e-11
2.90878e-11
7.90946e-12
2.26558e-11
4.94992e-12
1.6193e-11
2.69378e-12
1.03617e-11
1.13858e-12
5.61586e-12
2.76459e-13
2.12501e-12
3.44051e-13
1.98773e-14
5.28945e-13
-7.46098e-13
1.68156e-12
-3.28059e-12
3.56397e-12
-7.50344e-12
6.16373e-12
-1.29703e-11
9.46458e-12
-1.95079e-11
1.33637e-11
-2.65743e-11
1.76848e-11
-3.34321e-11
2.22057e-11
-3.92022e-11
2.66865e-11
-4.30089e-11
3.08953e-11
-4.41328e-11
3.46254e-11
-4.21379e-11
3.77046e-11
-3.6933e-11
3.99989e-11
-2.87845e-11
4.14129e-11
-1.82779e-11
4.189e-11
-6.25165e-12
4.14111e-11
6.29777e-12
3.99953e-11
1.83184e-11
3.76991e-11
2.88148e-11
3.4618e-11
3.69502e-11
3.08864e-11
4.21412e-11
2.66767e-11
4.41235e-11
2.21956e-11
4.299e-11
1.76753e-11
3.91782e-11
1.33556e-11
3.34075e-11
9.45846e-12
2.6553e-11
6.15952e-12
1.94919e-11
3.56133e-12
1.29599e-11
1.67999e-12
7.49719e-12
5.2813e-13
3.27687e-12
7.44604e-13
1.27578e-13
8.84719e-13
-1.32947e-12
2.36628e-12
-4.76215e-12
4.59071e-12
-9.72788e-12
7.53813e-12
-1.59177e-11
1.11725e-11
-2.31423e-11
1.53618e-11
-3.07636e-11
1.99119e-11
-3.79822e-11
2.45942e-11
-4.38846e-11
2.91723e-11
-4.75869e-11
3.34248e-11
-4.83854e-11
3.71603e-11
-4.58734e-11
4.02225e-11
-3.99953e-11
4.24925e-11
-3.10545e-11
4.38869e-11
-1.96723e-11
4.43566e-11
-6.72138e-12
4.38855e-11
6.76895e-12
4.24895e-11
1.97143e-11
4.02179e-11
3.10864e-11
3.71539e-11
4.00142e-11
3.34168e-11
4.58782e-11
2.91631e-11
4.83772e-11
2.45846e-11
4.75686e-11
1.99025e-11
4.38603e-11
1.53536e-11
3.79565e-11
1.1166e-11
3.07406e-11
7.53346e-12
2.31244e-11
4.58768e-12
1.59057e-11
2.36442e-12
9.72046e-12
8.83695e-13
4.75759e-12
1.32753e-12
3.00772e-13
1.36545e-12
-2.13524e-12
3.20955e-12
-6.60625e-12
5.78555e-12
-1.23039e-11
9.08158e-12
-1.92138e-11
1.30393e-11
-2.71e-11
1.7499e-11
-3.52233e-11
2.22536e-11
-4.27368e-11
2.70721e-11
-4.87031e-11
3.17241e-11
-5.22389e-11
3.60009e-11
-5.26622e-11
3.97265e-11
-4.9599e-11
4.27609e-11
-4.30297e-11
4.49994e-11
-3.32929e-11
4.63701e-11
-2.10429e-11
4.68312e-11
-7.1825e-12
4.6369e-11
7.23119e-12
4.4997e-11
2.10863e-11
4.27571e-11
3.33264e-11
3.97211e-11
4.30502e-11
3.59939e-11
4.96055e-11
3.17157e-11
5.26554e-11
2.70629e-11
5.22214e-11
2.22444e-11
4.86788e-11
1.74906e-11
4.27103e-11
1.30324e-11
3.51988e-11
9.0765e-12
2.70803e-11
5.78213e-12
1.92e-11
3.20738e-12
1.22952e-11
1.3642e-12
6.60077e-12
2.13279e-12
5.58937e-13
1.99218e-12
-3.20325e-12
4.22526e-12
-8.83933e-12
7.15631e-12
-1.52349e-11
1.07976e-11
-2.28551e-11
1.50643e-11
-3.13666e-11
1.9772e-11
-3.99311e-11
2.4706e-11
-4.76708e-11
2.96358e-11
-5.36329e-11
3.43397e-11
-5.69428e-11
3.86228e-11
-5.69453e-11
4.23249e-11
-5.33012e-11
4.53217e-11
-4.60265e-11
4.75224e-11
-3.54936e-11
4.88659e-11
-2.23864e-11
4.93173e-11
-7.63389e-12
4.88651e-11
7.68336e-12
4.75207e-11
2.24307e-11
4.53188e-11
3.55283e-11
4.23205e-11
4.60484e-11
3.86168e-11
5.33092e-11
3.43322e-11
5.69399e-11
2.96273e-11
5.69263e-11
2.46971e-11
5.36089e-11
1.97637e-11
4.76438e-11
1.50571e-11
3.99053e-11
1.07922e-11
3.13453e-11
7.15252e-12
2.28397e-11
4.22277e-12
1.5225e-11
1.99068e-12
8.83286e-12
3.20021e-12
9.23257e-13
2.78521e-12
-4.57137e-12
5.4254e-12
-1.14795e-11
8.70946e-12
-1.8519e-11
1.26887e-11
-2.68343e-11
1.72462e-11
-3.59241e-11
2.21778e-11
-4.48627e-11
2.72656e-11
-5.27585e-11
3.22825e-11
-5.86498e-11
3.70175e-11
-6.16778e-11
4.12901e-11
-6.1218e-11
4.49563e-11
-5.69673e-11
4.79068e-11
-4.8977e-11
5.00642e-11
-3.7651e-11
5.13775e-11
-2.36998e-11
5.18183e-11
-8.07462e-12
5.13771e-11
8.12454e-12
5.00631e-11
2.37447e-11
4.79047e-11
3.76866e-11
4.49529e-11
4.90003e-11
4.12852e-11
5.69769e-11
3.70109e-11
6.12141e-11
3.22747e-11
6.16625e-11
2.72572e-11
5.86265e-11
2.21696e-11
5.27313e-11
1.72389e-11
4.4836e-11
1.26829e-11
3.59013e-11
8.70532e-12
2.68173e-11
5.4226e-12
1.85077e-11
2.78345e-12
1.1472e-11
4.56766e-12
1.416e-12
3.76346e-12
-6.27376e-12
6.81998e-12
-1.4536e-11
1.04501e-11
-2.21491e-11
1.4756e-11
-3.11402e-11
1.9583e-11
-4.07511e-11
2.4713e-11
-4.99927e-11
2.99289e-11
-5.79745e-11
3.50095e-11
-6.37304e-11
3.97558e-11
-6.64241e-11
4.40027e-11
-6.54648e-11
4.76216e-11
-6.05862e-11
5.05181e-11
-5.18735e-11
5.26273e-11
-3.97602e-11
5.39078e-11
-2.49803e-11
5.4337e-11
-8.50383e-12
5.39077e-11
8.5539e-12
5.26268e-11
2.50256e-11
5.05168e-11
3.97966e-11
4.76192e-11
5.18979e-11
4.39988e-11
6.05973e-11
3.97503e-11
6.54626e-11
3.50026e-11
6.64103e-11
2.99211e-11
6.3708e-11
2.4705e-11
5.79474e-11
1.95757e-11
4.99653e-11
1.475e-11
4.0727e-11
1.04457e-11
3.11216e-11
6.81689e-12
2.21365e-11
3.76145e-12
1.45274e-11
6.26933e-12
2.05978e-12
4.94391e-12
-8.33935e-12
8.41698e-12
-1.80091e-11
1.23823e-11
-2.61145e-11
1.69999e-11
-3.57577e-11
2.20721e-11
-4.58233e-11
2.7374e-11
-5.52947e-11
3.26927e-11
-6.32932e-11
3.78143e-11
-6.8852e-11
4.25535e-11
-7.11633e-11
4.67604e-11
-6.96716e-11
5.03217e-11
-6.41476e-11
5.31572e-11
-5.4709e-11
5.52139e-11
-4.18169e-11
5.64593e-11
-2.62257e-11
5.68763e-11
-8.92082e-12
5.64594e-11
8.97073e-12
5.5214e-11
2.6271e-11
5.31568e-11
4.18538e-11
5.03203e-11
5.47344e-11
4.67576e-11
6.416e-11
4.25491e-11
6.96711e-11
3.78084e-11
7.1151e-11
3.26856e-11
6.88307e-11
2.73664e-11
6.32666e-11
2.20649e-11
5.52669e-11
1.69937e-11
4.57981e-11
1.23776e-11
3.57377e-11
8.41363e-12
2.61005e-11
4.94166e-12
1.79994e-11
8.33413e-12
2.87686e-12
6.34118e-12
-1.07905e-11
1.02225e-11
-2.18905e-11
1.45087e-11
-3.04006e-11
1.94196e-11
-4.06686e-11
2.47105e-11
-5.11141e-11
3.01575e-11
-6.07417e-11
3.5554e-11
-6.86897e-11
4.06951e-11
-7.3993e-11
4.54097e-11
-7.58779e-11
4.95632e-11
-7.38252e-11
5.30576e-11
-6.76419e-11
5.58259e-11
-5.74773e-11
5.78262e-11
-4.38173e-11
5.90343e-11
-2.74338e-11
5.94384e-11
-9.32492e-12
5.90348e-11
9.3744e-12
5.78268e-11
2.7479e-11
5.58262e-11
4.38543e-11
5.30572e-11
5.75035e-11
4.95616e-11
6.76557e-11
4.54064e-11
7.38262e-11
4.06901e-11
7.58673e-11
3.55478e-11
7.39731e-11
3.01505e-11
6.86639e-11
2.47035e-11
6.07139e-11
1.94134e-11
5.10882e-11
1.45038e-11
4.06473e-11
1.0219e-11
3.03853e-11
6.33871e-12
2.18797e-11
1.07844e-11
3.8884e-12
7.9673e-12
-1.36421e-11
1.2241e-11
-2.61642e-11
1.68311e-11
-3.49906e-11
2.20136e-11
-4.58512e-11
2.74949e-11
-5.65954e-11
3.30602e-11
-6.6307e-11
3.85101e-11
-7.41397e-11
4.36498e-11
-7.91327e-11
4.83235e-11
-8.05517e-11
5.24115e-11
-7.79132e-11
5.58302e-11
-7.10607e-11
5.85255e-11
-6.01726e-11
6.04659e-11
-4.57577e-11
6.16351e-11
-2.8603e-11
6.20257e-11
-9.71557e-12
6.16358e-11
9.76434e-12
6.04671e-11
2.86477e-11
5.85266e-11
4.57948e-11
5.58308e-11
6.01993e-11
5.24109e-11
7.10755e-11
4.83213e-11
7.79158e-11
4.36459e-11
8.05427e-11
3.85047e-11
7.91143e-11
3.30538e-11
7.41148e-11
2.74883e-11
6.62794e-11
2.20075e-11
5.65689e-11
1.68261e-11
4.58287e-11
1.22373e-11
3.49741e-11
7.96463e-12
2.61523e-11
1.36352e-11
5.11387e-12
9.83163e-12
-1.69013e-11
1.44754e-11
-3.0808e-11
1.93502e-11
-3.98654e-11
2.47796e-11
-5.12806e-11
3.04219e-11
-6.22377e-11
3.60788e-11
-7.19639e-11
4.15583e-11
-7.96191e-11
4.66768e-11
-8.42512e-11
5.12942e-11
-8.51691e-11
5.53054e-11
-8.19244e-11
5.86405e-11
-7.43958e-11
6.12576e-11
-6.27896e-11
6.31349e-11
-4.7635e-11
6.42633e-11
-2.97314e-11
6.464e-11
-1.00922e-11
6.42643e-11
1.01401e-11
6.31366e-11
2.97754e-11
6.12594e-11
4.76719e-11
5.8642e-11
6.28168e-11
5.53058e-11
7.44117e-11
5.12932e-11
8.19284e-11
4.66741e-11
8.51619e-11
4.15539e-11
8.42345e-11
3.60732e-11
7.95955e-11
3.04157e-11
7.19369e-11
2.47737e-11
6.2211e-11
1.93452e-11
5.12573e-11
1.44715e-11
3.98478e-11
9.82882e-12
3.0795e-11
1.68935e-11
6.57052e-12
1.19409e-11
-2.05672e-11
1.69272e-11
-3.57943e-11
2.20658e-11
-4.5004e-11
2.77146e-11
-5.69294e-11
3.34879e-11
-6.8011e-11
3.92102e-11
-7.76862e-11
4.46962e-11
-8.51051e-11
4.97748e-11
-8.93299e-11
5.43215e-11
-8.97158e-11
5.82451e-11
-8.5848e-11
6.14893e-11
-7.764e-11
6.40233e-11
-6.53236e-11
6.58347e-11
-4.94464e-11
6.69209e-11
-3.08175e-11
6.72831e-11
-1.04544e-11
6.6922e-11
1.05011e-11
6.58368e-11
3.08607e-11
6.40258e-11
4.94829e-11
6.14916e-11
6.5351e-11
5.82466e-11
7.76567e-11
5.43216e-11
8.58534e-11
4.97732e-11
8.97103e-11
4.46928e-11
8.93149e-11
3.92054e-11
8.50829e-11
3.34823e-11
7.766e-11
2.7709e-11
6.79843e-11
2.20609e-11
5.69054e-11
1.69233e-11
4.49853e-11
1.1938e-11
3.57803e-11
2.05584e-11
8.27308e-12
1.42996e-11
-2.46312e-11
1.95971e-11
-4.10918e-11
2.49768e-11
-5.03838e-11
3.08151e-11
-6.27676e-11
3.66894e-11
-7.38853e-11
4.24516e-11
-8.34484e-11
4.79216e-11
-9.05751e-11
5.29426e-11
-9.43509e-11
5.74049e-11
-9.41781e-11
6.1231e-11
-8.96741e-11
6.43774e-11
-8.07864e-11
6.68239e-11
-6.77701e-11
6.85667e-11
-5.11892e-11
6.96092e-11
-3.18601e-11
6.99565e-11
-1.08018e-11
6.96106e-11
1.0847e-11
6.85692e-11
3.19021e-11
6.68271e-11
5.1225e-11
6.43805e-11
6.77975e-11
6.12335e-11
8.08038e-11
5.7406e-11
8.96808e-11
5.29421e-11
9.41742e-11
4.79193e-11
9.43376e-11
4.24477e-11
9.05545e-11
3.66844e-11
8.34232e-11
3.08099e-11
7.38589e-11
2.49721e-11
6.27432e-11
1.95932e-11
5.03642e-11
1.42966e-11
4.10769e-11
2.46215e-11
1.02335e-11
1.69099e-11
-2.90779e-11
2.24846e-11
-4.66666e-11
2.80813e-11
-5.59805e-11
3.40772e-11
-6.87635e-11
4.00228e-11
-7.98308e-11
4.58e-11
-8.92256e-11
5.12326e-11
-9.60078e-11
5.61789e-11
-9.92972e-11
6.0544e-11
-9.85431e-11
6.42634e-11
-9.33935e-11
6.73057e-11
-8.38286e-11
6.96605e-11
-7.0125e-11
7.13321e-11
-5.28607e-11
7.23296e-11
-3.28576e-11
7.26616e-11
-1.11338e-11
7.23312e-11
1.11775e-11
7.13349e-11
3.28983e-11
6.96642e-11
5.28958e-11
6.73095e-11
7.01522e-11
6.42668e-11
8.38465e-11
6.05462e-11
9.34014e-11
5.61795e-11
9.85409e-11
5.12314e-11
9.92858e-11
4.57971e-11
9.59888e-11
4.00187e-11
8.92016e-11
3.40725e-11
7.98051e-11
2.80768e-11
6.87389e-11
2.24809e-11
5.59601e-11
1.69069e-11
4.66508e-11
2.90673e-11
1.24612e-11
1.97721e-11
-3.38856e-11
2.55888e-11
-5.24832e-11
3.13766e-11
-6.17683e-11
3.7497e-11
-7.48839e-11
4.3485e-11
-8.58188e-11
4.92528e-11
-9.49934e-11
5.46273e-11
-1.01382e-10
5.9483e-11
-1.04153e-10
6.37387e-11
-1.02799e-10
6.73426e-11
-9.69974e-11
7.02746e-11
-8.67607e-11
7.25339e-11
-7.23843e-11
7.4132e-11
-5.44588e-11
7.50834e-11
-3.3809e-11
7.53997e-11
-1.14501e-11
7.50851e-11
1.14921e-11
7.41352e-11
3.38482e-11
7.25381e-11
5.44928e-11
7.02792e-11
7.24111e-11
6.73468e-11
8.67789e-11
6.37419e-11
9.70063e-11
5.94847e-11
1.02798e-10
5.46272e-11
1.04143e-10
4.92509e-11
1.01365e-10
4.34816e-11
9.49708e-11
3.74929e-11
8.57938e-11
3.13724e-11
7.48593e-11
2.55852e-11
6.17474e-11
1.97693e-11
5.24667e-11
3.38741e-11
1.49625e-11
2.28854e-11
-3.90273e-11
2.89077e-11
-5.85055e-11
3.48593e-11
-6.77199e-11
4.10701e-11
-8.10947e-11
4.70725e-11
-9.18212e-11
5.28075e-11
-1.00728e-10
5.8104e-11
-1.06679e-10
6.28538e-11
-1.08903e-10
6.69887e-11
-1.06934e-10
7.04688e-11
-1.00478e-10
7.3285e-11
-8.95768e-11
7.54451e-11
-7.45443e-11
7.69674e-11
-5.59811e-11
7.78714e-11
-3.4713e-11
7.81717e-11
-1.17503e-11
7.78733e-11
1.17905e-11
7.69709e-11
3.47506e-11
7.54497e-11
5.6014e-11
7.32902e-11
7.45706e-11
7.04738e-11
8.95952e-11
6.69928e-11
1.00487e-10
6.28565e-11
1.06934e-10
5.8105e-11
1.08895e-10
5.28066e-11
1.06663e-10
4.70701e-11
1.00707e-10
4.10667e-11
9.17972e-11
3.48555e-11
8.10705e-11
2.89043e-11
6.76986e-11
2.28827e-11
5.84884e-11
3.90149e-11
1.77418e-11
2.62473e-11
-4.4472e-11
3.24389e-11
-6.46971e-11
3.85254e-11
-7.38063e-11
4.47925e-11
-8.73618e-11
5.07825e-11
-9.78112e-11
5.64616e-11
-1.06408e-10
6.16611e-11
-1.11878e-10
6.62906e-11
-1.13532e-10
7.02937e-11
-1.10937e-10
7.36424e-11
-1.03826e-10
7.63373e-11
-9.22718e-11
7.83947e-11
-7.66017e-11
7.98392e-11
-5.74256e-11
8.06947e-11
-3.55685e-11
8.09786e-11
-1.20341e-11
8.06967e-11
1.20723e-11
7.98429e-11
3.56045e-11
7.83997e-11
5.74572e-11
7.6343e-11
7.66273e-11
7.36481e-11
9.22902e-11
7.02988e-11
1.03837e-10
6.62944e-11
1.10939e-10
6.16632e-11
1.13526e-10
5.64618e-11
1.11865e-10
5.0781e-11
1.06388e-10
4.47898e-11
9.77884e-11
3.85222e-11
8.73381e-11
3.24359e-11
7.37848e-11
2.62448e-11
6.46795e-11
4.44588e-11
2.0801e-11
2.98548e-11
-5.01852e-11
3.61796e-11
-7.10219e-11
4.23705e-11
-7.99973e-11
4.866e-11
-9.36513e-11
5.46118e-11
-1.03763e-10
6.02129e-11
-1.12009e-10
6.52972e-11
-1.16963e-10
6.97927e-11
-1.18028e-10
7.36537e-11
-1.14798e-10
7.68634e-11
-1.07036e-10
7.9432e-11
-9.48405e-11
8.13834e-11
-7.8553e-11
8.2748e-11
-5.87903e-11
8.3554e-11
-3.63745e-11
8.38211e-11
-1.23012e-11
8.35561e-11
1.23373e-11
8.27519e-11
3.64086e-11
8.13887e-11
5.88205e-11
7.94382e-11
7.85777e-11
7.68697e-11
9.48586e-11
7.36595e-11
1.07047e-10
6.97974e-11
1.14801e-10
6.53003e-11
1.18023e-10
6.02142e-11
1.16951e-10
5.46114e-11
1.11991e-10
4.86581e-11
1.03742e-10
4.23679e-11
9.36284e-11
3.6177e-11
7.99758e-11
2.98526e-11
7.10039e-11
5.01712e-11
2.41401e-11
3.37039e-11
-5.613e-11
4.01261e-11
-7.7444e-11
4.63901e-11
-8.62612e-11
5.26687e-11
-9.99299e-11
5.85579e-11
-1.09652e-10
6.40592e-11
-1.1751e-10
6.90111e-11
-1.21914e-10
7.33594e-11
-1.22376e-10
7.70683e-11
-1.18507e-10
8.01321e-11
-1.101e-10
8.25695e-11
-9.7278e-11
8.44116e-11
-8.03951e-11
8.56945e-11
-6.00731e-11
8.64499e-11
-3.713e-11
8.66999e-11
-1.25512e-11
8.64521e-11
1.25852e-11
8.56986e-11
3.71621e-11
8.44172e-11
6.01018e-11
8.25761e-11
8.04189e-11
8.0139e-11
9.72958e-11
7.70749e-11
1.10111e-10
7.3365e-11
1.18511e-10
6.90152e-11
1.22373e-10
6.40615e-11
1.21905e-10
5.85584e-11
1.17494e-10
5.26678e-11
1.09632e-10
4.63881e-11
9.9908e-11
4.0124e-11
8.624e-11
3.3702e-11
7.74259e-11
5.61153e-11
2.77579e-11
3.77901e-11
-6.22678e-11
4.42745e-11
-8.39284e-11
5.05792e-11
-9.25659e-11
5.68151e-11
-1.06166e-10
6.26179e-11
-1.15455e-10
6.79984e-11
-1.2289e-10
7.28014e-11
-1.26717e-10
7.69901e-11
-1.26565e-10
8.05375e-11
-1.22054e-10
8.34485e-11
-1.13011e-10
8.57501e-11
-9.95796e-11
8.748e-11
-8.21249e-11
8.86791e-11
-6.12723e-11
8.9383e-11
-3.78338e-11
8.96155e-11
-1.27838e-11
8.93852e-11
1.28156e-11
8.86833e-11
3.7864e-11
8.74858e-11
6.12993e-11
8.57571e-11
8.21476e-11
8.34559e-11
9.95969e-11
8.05447e-11
1.13022e-10
7.69965e-11
1.22059e-10
7.28064e-11
1.26563e-10
6.80018e-11
1.26709e-10
6.26194e-11
1.22876e-10
5.6815e-11
1.15437e-10
5.0578e-11
1.06145e-10
4.42729e-11
9.2545e-11
3.77886e-11
8.39102e-11
6.22525e-11
3.16514e-11
4.21085e-11
-6.85589e-11
4.86205e-11
-9.04404e-11
5.49329e-11
-9.88783e-11
6.10955e-11
-1.12328e-10
6.67892e-11
-1.21149e-10
7.20286e-11
-1.2813e-10
7.6667e-11
-1.31356e-10
8.06841e-11
-1.30582e-10
8.40609e-11
-1.25431e-10
8.68128e-11
-1.15762e-10
8.89741e-11
-1.01741e-10
9.05886e-11
-8.37395e-11
9.17022e-11
-6.23859e-11
9.23535e-11
-3.84851e-11
9.25684e-11
-1.29986e-11
9.23558e-11
1.30282e-11
9.17065e-11
3.85132e-11
9.05946e-11
6.24112e-11
8.89813e-11
8.37609e-11
8.68206e-11
1.01758e-10
8.40687e-11
1.15774e-10
8.06912e-11
1.25437e-10
7.66729e-11
1.30581e-10
7.20329e-11
1.31349e-10
6.67917e-11
1.28118e-10
6.10963e-11
1.21132e-10
5.49325e-11
1.12309e-10
4.86195e-11
9.8858e-11
4.21074e-11
9.04223e-11
6.85431e-11
3.58168e-11
4.66539e-11
-7.4963e-11
5.31594e-11
-9.69459e-11
5.94465e-11
-1.05166e-10
6.55067e-11
-1.18389e-10
7.10694e-11
-1.26712e-10
7.61479e-11
-1.33208e-10
8.06068e-11
-1.35815e-10
8.44408e-11
-1.34416e-10
8.76384e-11
-1.28629e-10
9.02248e-11
-1.18349e-10
9.22415e-11
-1.03758e-10
9.37379e-11
-8.52359e-11
9.47642e-11
-6.34122e-11
9.5362e-11
-3.90829e-11
9.55588e-11
-1.31955e-11
9.53642e-11
1.32228e-11
9.47685e-11
3.91089e-11
9.3744e-11
6.34358e-11
9.22489e-11
8.52561e-11
9.0233e-11
1.03773e-10
8.76467e-11
1.1836e-10
8.44486e-11
1.28635e-10
8.06136e-11
1.34416e-10
7.61532e-11
1.3581e-10
7.10729e-11
1.33198e-10
6.55085e-11
1.26696e-10
5.94469e-11
1.1837e-10
5.3159e-11
1.05146e-10
4.66532e-11
9.69281e-11
7.49468e-11
4.02496e-11
5.14206e-11
-8.14396e-11
5.78863e-11
-1.03412e-10
6.41154e-11
-1.11395e-10
7.00457e-11
-1.24319e-10
7.5456e-11
-1.32122e-10
8.03546e-11
-1.38107e-10
8.46198e-11
-1.4008e-10
8.82595e-11
-1.38055e-10
9.12696e-11
-1.31639e-10
9.36847e-11
-1.20764e-10
9.55524e-11
-1.05625e-10
9.69279e-11
-8.66115e-11
9.78652e-11
-6.43495e-11
9.84085e-11
-3.96262e-11
9.8587e-11
-1.3374e-11
9.84107e-11
1.3399e-11
9.78695e-11
3.96501e-11
9.69341e-11
6.43712e-11
9.55599e-11
8.66302e-11
9.36931e-11
1.0564e-10
9.12783e-11
1.20775e-10
8.82679e-11
1.31645e-10
8.46273e-11
1.38057e-10
8.03607e-11
1.40076e-10
7.54603e-11
1.38098e-10
7.00483e-11
1.32108e-10
6.41166e-11
1.24302e-10
5.78866e-11
1.11376e-10
5.14205e-11
1.03394e-10
8.14231e-11
4.49442e-11
5.64031e-11
-8.79485e-11
6.27963e-11
-1.09805e-10
6.8935e-11
-1.17533e-10
7.47094e-11
-1.30093e-10
7.99465e-11
-1.37359e-10
8.4647e-11
-1.42807e-10
8.8705e-11
-1.44138e-10
9.21397e-11
-1.4149e-10
9.49542e-11
-1.34453e-10
9.71921e-11
-1.23002e-10
9.89069e-11
-1.0734e-10
1.00159e-10
-8.78634e-11
1.01005e-10
-6.51959e-11
1.01493e-10
-4.0114e-11
1.01653e-10
-1.35338e-11
1.01495e-10
1.35566e-11
1.0101e-10
4.01358e-11
1.00165e-10
6.52159e-11
9.89145e-11
8.78807e-11
9.72007e-11
1.07354e-10
9.49631e-11
1.23012e-10
9.21485e-11
1.3446e-10
8.8713e-11
1.41492e-10
8.46539e-11
1.44136e-10
7.99517e-11
1.428e-10
7.47129e-11
1.37347e-10
6.8937e-11
1.30078e-10
6.27973e-11
1.17516e-10
5.64035e-11
1.09788e-10
8.79319e-11
4.98948e-11
6.15956e-11
-9.44498e-11
6.78844e-11
-1.16094e-10
7.39012e-11
-1.2355e-10
7.9495e-11
-1.35687e-10
8.45386e-11
-1.42403e-10
8.90235e-11
-1.47292e-10
9.28612e-11
-1.47976e-10
9.60805e-11
-1.44709e-10
9.86918e-11
-1.37064e-10
1.00747e-10
-1.25057e-10
1.02305e-10
-1.08898e-10
1.0343e-10
-8.8989e-11
1.04184e-10
-6.59499e-11
1.04616e-10
-4.05456e-11
1.04757e-10
-1.36748e-11
1.04618e-10
1.36954e-11
1.04189e-10
4.05653e-11
1.03437e-10
6.5968e-11
1.02312e-10
8.90048e-11
1.00756e-10
1.08911e-10
9.8701e-11
1.25067e-10
9.60897e-11
1.37071e-10
9.28698e-11
1.44712e-10
8.9031e-11
1.47974e-10
8.45447e-11
1.47287e-10
7.94995e-11
1.42392e-10
7.3904e-11
1.35674e-10
6.7886e-11
1.23534e-10
6.15966e-11
1.16077e-10
9.44332e-11
5.50952e-11
6.69922e-11
-1.00904e-10
7.31455e-11
-1.22247e-10
7.901e-11
-1.29415e-10
8.43999e-11
-1.41077e-10
8.92301e-11
-1.47233e-10
9.34826e-11
-1.51545e-10
9.70875e-11
-1.5158e-10
1.00081e-10
-1.47703e-10
1.02482e-10
-1.39465e-10
1.04349e-10
-1.26924e-10
1.05746e-10
-1.10295e-10
1.06743e-10
-8.99857e-11
1.07403e-10
-6.66098e-11
1.07777e-10
-4.09199e-11
1.07899e-10
-1.37965e-11
1.07779e-10
1.38149e-11
1.07407e-10
4.09375e-11
1.06749e-10
6.66261e-11
1.05754e-10
8.99999e-11
1.04358e-10
1.10307e-10
1.02491e-10
1.26934e-10
1.00091e-10
1.39471e-10
9.70966e-11
1.47707e-10
9.34907e-11
1.5158e-10
8.92369e-11
1.51541e-10
8.44051e-11
1.47224e-10
7.90136e-11