/*--------------------------------*- C++ -*----------------------------------*\
| =========                 |                                                 |
| \\      /  F ield         | OpenFOAM: The Open Source CFD Toolbox           |
|  \\    /   O peration     | Version:  5.x                                   |
|   \\  /    A nd           | Web:      www.OpenFOAM.org                      |
|    \\/     M anipulation  |                                                 |
\*---------------------------------------------------------------------------*/
FoamFile
{
    version     2.0;
    format      ascii;
    class       volVectorField;
    location    "0.015";
    object      U;
}
// * * * * * * * * * * * * * * * * * * * * * * * * * * * * * * * * * * * * * //

dimensions      [0 1 -1 0 0 0 0];

internalField   nonuniform List<vector> 
7200
(
(2.52899e-07 3.30348e-07 0)
(1.3859e-06 2.15938e-06 1.2604e-23)
(-7.53795e-06 -1.61834e-05 -1.37876e-23)
(-3.65547e-05 -6.50261e-05 -2.17355e-24)
(-6.38745e-05 -9.27652e-05 2.87552e-22)
(-4.63448e-05 -4.46813e-05 -9.76003e-22)
(6.37414e-05 9.88159e-05 -1.22866e-23)
(0.000321412 0.00033407 1.3632e-23)
(0.000780172 0.000634349 2.39878e-21)
(0.0014651 0.000942111 -4.28154e-23)
(0.00234559 0.00117513 1.49054e-21)
(0.00332671 0.00125093 1.36745e-21)
(0.00426538 0.00111734 1.11845e-21)
(0.00500424 0.000774097 0)
(0.00541068 0.000276856 1.49688e-24)
(0.00540947 -0.000276719 0)
(0.00500093 -0.000773548 3.80092e-24)
(0.00426083 -0.00111617 4.35499e-23)
(0.00332197 -0.00124923 -1.32974e-21)
(0.00234154 -0.00117324 -5.58846e-23)
(0.00146222 -0.000940412 -2.05912e-23)
(0.000778476 -0.000633102 4.72078e-21)
(0.000320595 -0.000333324 -5.05639e-24)
(6.34154e-05 -9.84414e-05 -1.40367e-21)
(-4.64647e-05 4.48563e-05 -4.72026e-22)
(-6.3916e-05 9.28439e-05 -2.74388e-22)
(-3.6555e-05 6.50461e-05 0)
(-7.52409e-06 1.61768e-05 -7.07625e-24)
(1.3957e-06 -2.16274e-06 9.34795e-24)
(2.47061e-07 -3.30646e-07 -9.42145e-25)
(1.57002e-07 1.45182e-06 2.66801e-26)
(-2.35595e-06 -1.41517e-06 -1.03684e-23)
(-3.07994e-05 -7.60264e-05 -1.52168e-23)
(-9.456e-05 -0.000208311 -4.15495e-24)
(-0.000122105 -0.000234371 -4.24557e-22)
(1.60997e-05 -3.0011e-05 -5.18145e-23)
(0.000459812 0.000430962 1.52318e-23)
(0.00135315 0.0011183 -2.8139e-21)
(0.00281167 0.00194082 -1.17051e-22)
(0.00485839 0.00273544 1.87039e-21)
(0.00737146 0.00329265 -1.96365e-21)
(0.0100795 0.00341823 -2.03396e-21)
(0.0126097 0.0030011 -3.17589e-21)
(0.0145706 0.00205695 -4.99935e-22)
(0.0156398 0.000732082 4.82476e-23)
(0.0156367 -0.000731034 4.27485e-23)
(0.0145622 -0.00205497 -4.89157e-22)
(0.0125981 -0.0029977 1.64456e-21)
(0.010067 -0.0034136 1.54858e-22)
(0.00736047 -0.00328753 -2.1092e-21)
(0.00485017 -0.00273074 1.93004e-21)
(0.00280649 -0.00193723 -1.45973e-22)
(0.00135041 -0.00111602 -2.82887e-21)
(0.000458603 -0.000429734 2.12198e-21)
(1.56241e-05 3.06154e-05 7.27662e-22)
(-0.000122281 0.000234657 8.57059e-22)
(-9.46034e-05 0.000208405 3.86217e-24)
(-3.07891e-05 7.60196e-05 -1.26098e-23)
(-2.34335e-06 1.40249e-06 -1.46771e-23)
(1.44658e-07 -1.45324e-06 1.26921e-25)
(-4.57944e-07 2.4119e-06 -1.33706e-24)
(-1.12961e-05 -1.64323e-05 1.54995e-27)
(-6.93956e-05 -0.000155454 -3.33196e-23)
(-0.000158109 -0.00033471 2.72934e-22)
(-0.000129882 -0.000295707 -5.45234e-22)
(0.000226398 0.000113611 1.6235e-21)
(0.00112417 0.000906048 0)
(0.00277003 0.00201165 2.89849e-21)
(0.00530195 0.00326835 -3.52401e-21)
(0.00870064 0.00442176 -1.94868e-21)
(0.0127342 0.00517239 1.86527e-22)
(0.0169709 0.0052612 -1.49019e-23)
(0.0208573 0.00455452 1.53212e-21)
(0.0238322 0.00309424 5.03475e-22)
(0.0254429 0.00109689 -1.27171e-24)
(0.0254385 -0.00109434 -8.05083e-23)
(0.0238201 -0.00309057 4.95354e-22)
(0.0208402 -0.00454912 0)
(0.0169522 -0.00525426 3.57398e-21)
(0.0127171 -0.00516482 1.82874e-21)
(0.00868733 -0.00441473 -1.8888e-21)
(0.00529309 -0.00326281 -3.43202e-21)
(0.00276503 -0.00200796 -2.0132e-23)
(0.00112179 -0.000903948 1.10115e-21)
(0.000225404 -0.000112526 1.05749e-23)
(-0.000130266 0.000296243 -1.0059e-21)
(-0.000158224 0.000334915 0)
(-6.93941e-05 0.000155469 -6.71774e-24)
(-1.12825e-05 1.64113e-05 0)
(-4.69237e-07 -2.41501e-06 1.76846e-24)
(-2.60276e-06 2.3429e-06 1.48217e-24)
(-2.90304e-05 -4.43209e-05 0)
(-0.000119542 -0.000245671 5.49596e-23)
(-0.000202691 -0.000429712 5.59875e-23)
(-4.57376e-05 -0.000272509 5.59077e-22)
(0.000629981 0.000373937 -8.408e-22)
(0.00209417 0.00149529 -1.87165e-23)
(0.00458939 0.00297245 -2.74514e-21)
(0.00824055 0.00457384 0)
(0.0129576 0.00597301 -2.75587e-23)
(0.0183925 0.00681354 1.89828e-21)
(0.0239748 0.00680642 -1.59704e-21)
(0.0290133 0.00581881 1.19563e-23)
(0.0328281 0.00392219 0)
(0.0348808 0.00138551 3.65294e-23)
(0.0348754 -0.00138103 7.43855e-23)
(0.0328132 -0.0039166 0)
(0.028992 -0.00581151 1.18129e-23)
(0.0239511 -0.00679759 -1.71289e-21)
(0.0183702 -0.0068041 -1.86947e-21)
(0.0129396 -0.00596421 0)
(0.00822798 -0.00456675 0)
(0.00458188 -0.00296754 2.70089e-21)
(0.00209034 -0.00149234 -1.11629e-21)
(0.000628284 -0.000372346 -8.14422e-22)
(-4.64227e-05 0.000273327 5.34818e-22)
(-0.000202926 0.000430058 0)
(-0.000119575 0.000245728 8.27984e-23)
(-2.90181e-05 4.42958e-05 -5.93185e-26)
(-2.61206e-06 -2.34875e-06 0)
(-7.53881e-06 2.29934e-07 3.36551e-24)
(-5.73636e-05 -8.48965e-05 5.56129e-25)
(-0.000172806 -0.000336187 -5.92696e-25)
(-0.000203553 -0.000479702 4.96664e-23)
(0.000164302 -0.00016098 6.41415e-22)
(0.00126002 0.000741207 1.46804e-23)
(0.00339231 0.0021764 -3.51038e-23)
(0.00681303 0.00397154 2.82284e-21)
(0.0116047 0.00583271 0)
(0.0175892 0.00738178 -1.67648e-21)
(0.0243052 0.00823258 2.72482e-23)
(0.0310672 0.00809081 1.1675e-22)
(0.0370826 0.00683868 1.10416e-23)
(0.0415926 0.00457683 1.05603e-24)
(0.0440058 0.00161166 -3.77516e-23)
(0.0439998 -0.00160493 -3.44972e-23)
(0.0415759 -0.00456915 3.76128e-22)
(0.0370583 -0.00682956 0)
(0.0310396 -0.00808041 -1.27455e-23)
(0.0242786 -0.00822174 1.22924e-23)
(0.017567 -0.0073717 2.59428e-23)
(0.0115885 -0.00582444 -2.44352e-23)
(0.00680283 -0.00396563 -2.73669e-21)
(0.0033868 -0.0021727 -1.09218e-21)
(0.00125743 -0.000739112 8.45097e-22)
(0.000163207 0.000162099 6.16679e-22)
(-0.000203964 0.000480216 3.75001e-22)
(-0.000172903 0.000336309 -8.6366e-23)
(-5.736e-05 8.48742e-05 0)
(-7.54605e-06 -2.39515e-07 0)
(-1.66431e-05 -4.92991e-06 8.37746e-25)
(-9.60223e-05 -0.000136105 1.12327e-23)
(-0.000216343 -0.00041533 -1.20292e-24)
(-0.000133819 -0.00047341 4.39825e-23)
(0.000532715 3.92489e-05 1.00156e-23)
(0.00214595 0.00120328 1.29798e-23)
(0.0050361 0.00292669 0)
(0.00943888 0.00498185 0)
(0.015372 0.00702359 1.47874e-21)
(0.0225609 0.00864178 3.19919e-21)
(0.0304402 0.00944213 -1.49108e-21)
(0.0382322 0.00914224 2.84946e-21)
(0.0450737 0.00764738 0)
(0.0501578 0.00508462 0)
(0.0528644 0.00178533 0)
(0.0528581 -0.00177615 0)
(0.0501399 -0.00507476 -3.75253e-22)
(0.0450474 -0.0076365 -3.58916e-24)
(0.0382018 -0.00913051 -1.33975e-21)
(0.0304102 -0.00943029 -1.14356e-23)
(0.0225351 -0.00863084 0)
(0.0153525 -0.00701453 0)
(0.00942596 -0.0049752 0)
(0.00502871 -0.00292237 2.19543e-21)
(0.00214228 -0.00120072 1.25263e-23)
(0.000531086 -3.78259e-05 -6.43146e-22)
(-0.000134476 0.000474109 -3.87172e-22)
(-0.000216541 0.000415539 0)
(-9.6041e-05 0.000136095 0)
(-1.66495e-05 4.9158e-06 0)
(-3.10671e-05 -1.39597e-05 -5.17972e-24)
(-0.000141765 -0.000194015 -3.69806e-23)
(-0.000232254 -0.000471318 -1.98084e-24)
(3.6281e-05 -0.000403126 4.46209e-23)
(0.00109172 0.000324454 -7.0599e-22)
(0.00331456 0.0017454 -1.49452e-23)
(0.00703901 0.00372322 -1.06831e-21)
(0.0124617 0.00597888 -1.97364e-23)
(0.0195202 0.0081293 -6.11772e-23)
(0.0278422 0.00975005 -3.08708e-21)
(0.0367711 0.0104553 2.98788e-21)
(0.0454588 0.00998574 -1.37019e-21)
(0.0529967 0.00827334 -9.39545e-24)
(0.0585534 0.0054677 3.22096e-22)
(0.061498 0.00191481 -8.92899e-25)
(0.0614915 -0.00190307 8.72785e-25)
(0.0585349 -0.0054556 -3.16532e-22)
(0.0529693 -0.00826076 -4.83942e-22)
(0.0454266 -0.00997288 1.3398e-21)
(0.0367386 -0.0104428 1.06237e-23)
(0.0278134 -0.00973863 2.33915e-23)
(0.0194976 -0.0081198 -2.21181e-23)
(0.0124461 -0.00597177 -1.92102e-23)
(0.00702961 -0.00371844 -2.14087e-21)
(0.00330964 -0.00174246 -1.44937e-23)
(0.00108943 -0.000322751 -6.83005e-22)
(3.53007e-05 0.000404016 -4.75836e-22)
(-0.000232599 0.000471631 -4.46977e-24)
(-0.000141827 0.000194028 0)
(-3.10762e-05 1.39405e-05 0)
(-5.12209e-05 -2.73503e-05 0)
(-0.000187341 -0.00025305 2.89022e-23)
(-0.000197561 -0.000493295 0)
(0.000338581 -0.00026506 -5.28352e-22)
(0.00187254 0.000687438 1.05858e-23)
(0.00478956 0.00235112 0)
(0.0094104 0.00454376 1.12107e-21)
(0.0158733 0.00694141 0)
(0.024027 0.00913711 -1.42632e-21)
(0.0334058 0.0107072 1.45941e-21)
(0.0432762 0.0112864 -2.74801e-21)
(0.0527396 0.0106447 1.89662e-24)
(0.0608624 0.00874175 4.68543e-22)
(0.0668066 0.00574514 -2.84592e-23)
(0.0699433 0.00200716 0)
(0.0699368 -0.00199282 2.44823e-23)
(0.066788 -0.00573081 6.08942e-22)
(0.0608346 -0.00872752 4.92759e-22)
(0.0527064 -0.0106308 1.0183e-23)
(0.043242 -0.0112734 -1.312e-21)
(0.0333747 -0.0106956 0)
(0.0240017 -0.00912751 -1.28957e-21)
(0.0158551 -0.00693414 -1.94964e-23)
(0.00939891 -0.00453874 2.1238e-21)
(0.00478323 -0.00234792 2.76329e-23)
(0.00186945 -0.000685505 6.88653e-22)
(0.000337189 0.00026613 -2.73205e-23)
(-0.000198106 0.000493724 -2.63358e-24)
(-0.000187475 0.000253098 1.9042e-24)
(-5.12396e-05 2.73256e-05 0)
(-7.60982e-05 -4.5144e-05 9.17969e-26)
(-0.000220556 -0.0003064 -7.52802e-23)
(-8.46665e-05 -0.000472256 -3.97589e-24)
(0.000805867 -5.92739e-05 9.42052e-24)
(0.00290467 0.00111832 -1.10891e-23)
(0.00659124 0.00300317 0)
(0.0121558 0.00536754 0)
(0.0196634 0.00785168 0)
(0.0288709 0.0100383 1.25099e-21)
(0.0392276 0.0115167 1.18382e-24)
(0.0499378 0.0119499 1.36555e-21)
(0.06007 0.0111406 -1.09046e-21)
(0.0686821 0.00907469 -3.98343e-23)
(0.0749424 0.00593331 -2.95612e-22)
(0.0782333 0.00206838 2.34898e-23)
(0.078227 -0.00205146 -2.45892e-23)
(0.0749242 -0.00591677 -2.90089e-22)
(0.0686545 -0.00905888 7.84542e-24)
(0.0600366 -0.0111259 -7.66895e-24)
(0.0499027 -0.0119366 2.52045e-21)
(0.0391948 -0.0115052 0)
(0.0288434 -0.0100289 1.32466e-21)
(0.0196428 -0.00784452 -1.81089e-23)
(0.0121422 -0.00536251 -1.03549e-21)
(0.00658339 -0.00299986 -9.9939e-25)
(0.00290064 -0.00111624 -1.1725e-23)
(0.000803968 6.04902e-05 5.48633e-22)
(-8.54731e-05 0.0004728 -6.12034e-24)
(-0.000220799 0.000306492 0)
(-7.61378e-05 4.5113e-05 0)
(-0.000102489 -6.68668e-05 2.31551e-24)
(-0.000223571 -0.000346582 -2.46862e-23)
(0.000137866 -0.000401788 -4.49245e-22)
(0.0014709 0.000210632 9.78885e-24)
(0.00421542 0.0016053 -1.14477e-23)
(0.00873647 0.00368412 8.95467e-22)
(0.0152774 0.00617567 -1.04098e-21)
(0.02382 0.00869533 1.79671e-23)
(0.0340316 0.0108277 -1.28502e-21)
(0.0452864 0.012184 1.18995e-21)
(0.0567418 0.0124605 1.95275e-23)
(0.0674482 0.0114931 8.36042e-23)
(0.0764674 0.00929146 -8.05232e-22)
(0.0829838 0.00604616 2.46808e-22)
(0.0863975 0.00210352 -2.35928e-23)
(0.0863914 -0.00208409 0)
(0.0829663 -0.00602748 0)
(0.0764406 -0.00927414 7.21273e-24)
(0.0674152 -0.0114776 -9.86088e-22)
(0.0567065 -0.012447 -1.21764e-21)
(0.0452526 -0.0121728 -1.18169e-21)
(0.0340023 -0.0108188 0)
(0.0237973 -0.00868856 1.74372e-23)
(0.0152618 -0.00617087 9.7595e-22)
(0.00872701 -0.00368087 1.33273e-23)
(0.00421034 -0.00160318 7.15341e-22)
(0.0014684 -0.000209325 -8.40279e-24)
(0.00013673 0.000402433 6.82981e-24)
(-0.000223969 0.000346723 -1.03606e-22)
(-0.000102566 6.6828e-05 -1.86349e-25)
(-0.000124138 -9.15181e-05 1.20202e-24)
(-0.000172541 -0.00036609 2.65247e-22)
(0.000504256 -0.000278583 4.62453e-22)
(0.00236556 0.000538048 6.26166e-22)
(0.00582963 0.00213536 0)
(0.0112387 0.00437692 -9.27688e-22)
(0.0187743 0.00695148 6.88812e-23)
(0.0283302 0.00946131 0)
(0.0394898 0.0115031 -1.13019e-21)
(0.0515643 0.0127163 -1.23698e-21)
(0.0636773 0.0128324 -1.04835e-21)
(0.0748739 0.0117199 8.61988e-23)
(0.0842297 0.00940893 3.96685e-22)
(0.0909519 0.00609565 -2.47342e-22)
(0.0944623 0.00211689 -6.27656e-25)
(0.0944565 -0.00209506 6.08023e-25)
(0.0909353 -0.00607493 1.75199e-24)
(0.0842041 -0.00939018 -2.32398e-24)
(0.0748419 -0.0117036 7.60504e-23)
(0.0636424 -0.0128189 7.8101e-24)
(0.05153 -0.0127054 1.21054e-21)
(0.0394593 -0.0114948 1.08245e-21)
(0.0283058 -0.00945516 -1.67017e-23)
(0.0187568 -0.00694715 -9.77686e-22)
(0.0112276 -0.00437395 -5.12585e-25)
(0.0058234 -0.00213334 -7.57072e-22)
(0.00236236 -0.000536733 6.10848e-22)
(0.00050272 0.000279294 -1.33981e-23)
(-0.000173148 0.000366278 1.14407e-22)
(-0.000124274 9.14679e-05 1.13747e-24)
(-0.000130922 -0.000117617 -4.04859e-24)
(-3.76402e-05 -0.000358079 -1.50278e-22)
(0.00105028 -0.00010267 -7.42796e-24)
(0.00352017 0.000914053 -1.9139e-23)
(0.00776944 0.00269491 1.17593e-23)
(0.0141079 0.00506544 1.38109e-23)
(0.0226431 0.00768073 9.73505e-22)
(0.0331807 0.0101416 1.64462e-23)
(0.0452282 0.0120647 2.20312e-21)
(0.0580457 0.0131215 -1.62542e-23)
(0.070736 0.0130796 2.06964e-21)
(0.0823487 0.0118371 9.16338e-22)
(0.0919805 0.00944185 0)
(0.0988661 0.00609204 -2.06802e-22)
(0.102451 0.00211213 0)
(0.102446 -0.00208805 0)
(0.0988507 -0.00606939 0)
(0.0919564 -0.00942176 3.19903e-22)
(0.0823182 -0.0118202 9.13928e-22)
(0.0707021 -0.0130661 9.50449e-22)
(0.0580116 -0.0131112 0)
(0.045197 -0.0120571 -1.11187e-21)
(0.0331549 -0.0101363 9.88938e-22)
(0.0226239 -0.0076771 1.4581e-23)
(0.0140952 -0.00506295 -3.03596e-25)
(0.00776198 -0.00269316 -1.1638e-23)
(0.00351618 -0.000912839 -8.89338e-24)
(0.00104827 0.00010339 0)
(-3.8517e-05 0.000358298 1.77412e-22)
(-0.000131144 0.000117548 -2.35461e-23)
(-0.000108133 -0.000143303 0)
(0.000216471 -0.000317011 2.28363e-22)
(0.00181196 0.000122661 -8.44472e-24)
(0.00496296 0.00132819 -2.56441e-23)
(0.0100542 0.00327036 1.17377e-23)
(0.0173512 0.00573482 -1.3331e-23)
(0.0268785 0.00835174 9.18149e-22)
(0.0383579 0.0107311 -9.63894e-22)
(0.0512307 0.0125148 -1.07218e-21)
(0.0647177 0.0134088 -1.50818e-23)
(0.0779117 0.0132152 -9.77473e-22)
(0.0898751 0.0118593 1.38785e-24)
(0.0997309 0.00940312 5.69329e-24)
(0.106744 0.00604413 2.07779e-22)
(0.110386 0.00209236 -1.65171e-23)
(0.110381 -0.0020662 0)
(0.10673 -0.00601969 1.97085e-24)
(0.0997086 -0.00938178 -3.23544e-22)
(0.0898465 -0.0118419 -6.82162e-24)
(0.0778793 -0.0132018 -1.84133e-21)
(0.0646843 -0.0133991 -9.33545e-22)
(0.0511993 -0.0125082 -1.52385e-23)
(0.0383311 -0.0107268 -1.01718e-21)
(0.0268578 -0.00834904 2.80791e-23)
(0.0173369 -0.00573304 -1.20208e-25)
(0.0100455 -0.00326907 7.00624e-22)
(0.0049581 -0.00132721 -1.24653e-21)
(0.00180941 -0.000122013 0)
(0.000215259 0.000317232 -1.85489e-22)
(-0.000108476 0.000143203 2.29467e-23)
(-3.59495e-05 -0.000166482 0)
(0.00062974 -0.000239209 -2.26409e-22)
(0.00282429 0.000391207 -9.27008e-24)
(0.00671975 0.00176924 -6.51119e-22)
(0.0127003 0.00384853 -1.1617e-23)
(0.0209724 0.0063718 -7.93507e-22)
(0.0314735 0.00895537 -9.18336e-22)
(0.0438486 0.0112269 9.76714e-22)
(0.0574829 0.0128574 -1.46021e-23)
(0.0715695 0.0135875 -9.02402e-22)
(0.0852002 0.0132518 1.44401e-23)
(0.0974565 0.0117996 0)
(0.107492 0.00930398 0)
(0.114602 0.00595946 0)
(0.118286 0.00206022 3.17096e-23)
(0.118282 -0.00203216 0)
(0.11459 -0.0059334 1.66076e-22)
(0.107471 -0.00928151 1.77933e-24)
(0.0974301 -0.0117816 0)
(0.0851697 -0.0132385 8.89775e-22)
(0.0715373 -0.0135785 1.85132e-21)
(0.0574518 -0.0128518 -9.10466e-22)
(0.0438212 -0.0112238 8.59768e-22)
(0.0314517 -0.00895378 -2.71614e-26)
(0.0209567 -0.00637094 7.73555e-22)
(0.0126903 -0.0038479 -7.29679e-22)
(0.00671396 -0.00176865 6.34711e-22)
(0.00282113 -0.000390738 -5.2191e-22)
(0.000628126 0.000239381 0)
(-3.64526e-05 0.000166329 0)
(0.000110823 -0.000184997 0)
(0.00124544 -0.00012324 0)
(0.00412012 0.000694451 5.38315e-22)
(0.00881381 0.00222591 1.00657e-23)
(0.0157212 0.00441702 -1.14103e-23)
(0.0249728 0.00696493 7.97163e-22)
(0.03642 0.00948495 2.62345e-23)
(0.0496398 0.0116286 -1.38958e-23)
(0.0639722 0.0130978 0)
(0.0785922 0.0136671 8.98843e-22)
(0.0925988 0.0132011 7.80761e-22)
(0.105097 0.0116697 -4.70234e-24)
(0.115273 0.00915431 2.55555e-22)
(0.122456 0.00584454 -4.37044e-25)
(0.126169 0.00201797 -1.4747e-23)
(0.126165 -0.00198823 1.22965e-23)
(0.122444 -0.00581702 -1.68256e-22)
(0.115255 -0.0091308 2.44595e-22)
(0.105073 -0.0116512 -6.38871e-22)
(0.0925705 -0.0131879 0)
(0.0785617 -0.0136587 -6.16912e-23)
(0.0639419 -0.0130933 1.72472e-21)
(0.0496123 -0.0116268 -8.72258e-22)
(0.0363973 -0.00948463 1.05798e-25)
(0.0249559 -0.0069652 -5.24995e-23)
(0.01571 -0.00441725 6.61038e-22)
(0.00880706 -0.0022259 6.08993e-22)
(0.0041163 -0.000694295 5.33099e-22)
(0.00124336 0.00012329 7.59666e-24)
(0.000110116 0.000184758 0)
(0.000362696 -0.000196818 0)
(0.00210861 2.98944e-05 2.95725e-22)
(0.0057293 0.00102232 -1.09273e-21)
(0.0112658 0.00268742 -6.28414e-22)
(0.0191275 0.0049644 -6.73997e-22)
(0.0293512 0.00750473 1.15529e-23)
(0.0417089 0.00993611 -1.24546e-23)
(0.0557196 0.0119375 0)
(0.0706873 0.0132421 -7.98023e-22)
(0.0857787 0.0136572 7.59048e-22)
(0.100106 0.013074 -7.66135e-22)
(0.112802 0.0114801 5.41357e-24)
(0.123085 0.00896268 -4.81395e-22)
(0.130318 0.00570495 0)
(0.134049 0.00196754 0)
(0.134046 -0.00193633 -1.27743e-23)
(0.130308 -0.00567616 1.49937e-24)
(0.123069 -0.00893828 -2.41481e-23)
(0.11278 -0.0114613 6.37569e-22)
(0.10008 -0.0130609 6.91042e-22)
(0.0857503 -0.0136495 -1.5652e-21)
(0.0706583 -0.0132387 -8.40885e-22)
(0.0556924 -0.011937 1.24856e-23)
(0.0416857 -0.00993721 -1.17547e-23)
(0.0293333 -0.00750631 -7.26945e-22)
(0.0191152 -0.00496571 -6.8793e-22)
(0.0112581 -0.00268818 -6.37129e-22)
(0.00572479 -0.00102264 -4.99083e-22)
(0.002106 -3.00655e-05 4.24134e-24)
(0.00036174 0.000196444 -3.21027e-24)
(0.000755086 -0.000200217 -3.39941e-22)
(0.00326427 0.00021679 -1.89067e-23)
(0.00767811 0.00136404 1.04646e-21)
(0.014094 0.00314389 6.47589e-22)
(0.0229269 0.00548043 6.90507e-22)
(0.0341044 0.00798376 -1.08838e-23)
(0.0473309 0.0103066 1.16911e-23)
(0.0620763 0.0121563 0)
(0.0776186 0.0132973 8.06709e-22)
(0.0931234 0.0135671 -7.7786e-22)
(0.107721 0.0128807 0)
(0.120574 0.0112403 0)
(0.130936 0.00873664 2.30514e-22)
(0.138201 0.00554551 3.64869e-25)
(0.141942 0.00191059 1.12065e-23)
(0.14194 -0.00187812 3.48368e-25)
(0.138193 -0.00551564 -3.4662e-25)
(0.130923 -0.00871146 -2.20535e-22)
(0.120556 -0.0112211 5.3485e-22)
(0.107698 -0.0128678 -1.32388e-21)
(0.0930974 -0.01356 7.65238e-22)
(0.0775912 -0.0132949 -1.12294e-23)
(0.0620498 -0.0121572 7.03305e-22)
(0.0473075 -0.0103092 0)
(0.0340857 -0.00798681 1.06571e-23)
(0.0229135 -0.00548301 -9.74345e-24)
(0.0140853 -0.00314561 0)
(0.00767287 -0.001365 9.96252e-22)
(0.00326109 -0.000217307 0)
(0.000753834 0.000199639 -3.3177e-22)
(0.00132756 -0.00019392 3.58261e-22)
(0.00475575 0.00043189 2.30829e-22)
(0.00998898 0.00170893 -5.22218e-22)
(0.017314 0.00358654 9.2899e-24)
(0.0271241 0.00595614 -1.03474e-23)
(0.0392276 0.00839662 6.4051e-22)
(0.0532764 0.0105961 -2.158e-23)
(0.0686995 0.0122891 1.12663e-23)
(0.0847574 0.0132706 6.79742e-22)
(0.100622 0.0134059 -1.00728e-23)
(0.115445 0.0126305 -5.86722e-22)
(0.128421 0.0109586 9.35204e-25)
(0.138837 0.00848273 1.94798e-22)
(0.146117 0.00537037 -3.3307e-25)
(0.149861 0.00184853 -1.12909e-23)
(0.149858 -0.00181503 -3.16545e-25)
(0.146111 -0.00533961 1.55861e-24)
(0.138826 -0.00845692 1.8766e-22)
(0.128405 -0.0109392 -5.81391e-23)
(0.115425 -0.0126178 6.29161e-23)
(0.100598 -0.0133995 0)
(0.0847321 -0.0132693 -6.52191e-22)
(0.0686742 -0.0122913 -1.37188e-21)
(0.0532532 -0.0106002 1.01685e-23)
(0.0392084 -0.00840127 6.06408e-22)
(0.0271098 -0.00596017 -9.15286e-24)
(0.0173044 -0.00358944 0)
(0.00998302 -0.00171074 -5.0518e-22)
(0.00475196 -0.000432905 1.0555e-24)
(0.00132597 0.000193052 3.59786e-22)
(0.00212277 -0.000177223 5.90622e-22)
(0.00662299 0.000667922 -3.14492e-22)
(0.0126806 0.00204717 -4.73464e-22)
(0.0209393 0.00400782 0)
(0.0317211 0.00638392 0)
(0.0447144 0.00873993 -6.52267e-22)
(0.0595357 0.0108057 1.01268e-23)
(0.0755794 0.0123407 6.26339e-22)
(0.0920967 0.0131696 -6.27087e-23)
(0.108271 0.0131823 5.87812e-22)
(0.123279 0.012332 6.10572e-22)
(0.136346 0.0106427 -7.43839e-24)
(0.146794 0.00820668 -1.88832e-22)
(0.154077 0.0051831 0)
(0.157816 0.00178256 0)
(0.157814 -0.00174827 0)
(0.154072 -0.00515163 0)
(0.146785 -0.00818037 -1.83101e-22)
(0.136333 -0.010623 -4.89179e-22)
(0.123262 -0.0123195 1.09849e-21)
(0.10825 -0.0131764 5.84494e-22)
(0.0920737 -0.0131693 5.24095e-23)
(0.0755556 -0.0123443 7.16748e-23)
(0.0595132 -0.0108114 1.89404e-25)
(0.044695 -0.00874628 -5.62005e-23)
(0.0317062 -0.00638957 8.11022e-25)
(0.0209289 -0.00401209 -8.41837e-24)
(0.0126739 -0.00205001 0)
(0.00661858 -0.000669609 0)
(0.0021208 0.000175951 0)
(0.00318517 -0.000150047 -1.39945e-21)
(0.00890126 0.000916474 -3.73286e-22)
(0.0157681 0.0023703 4.82424e-22)
(0.0249807 0.00440129 -5.55814e-22)
(0.0367173 0.00675764 0)
(0.0505577 0.00901217 0)
(0.0660996 0.0109379 0)
(0.0827072 0.0123168 -6.34621e-22)
(0.0996303 0.0130019 -1.19393e-21)
(0.116068 0.0129045 -6.20169e-22)
(0.131223 0.0119931 4.99305e-22)
(0.144354 0.010299 3.78269e-24)
(0.154815 0.0079135 -1.58681e-22)
(0.16209 0.00498676 0)
(0.165819 0.00171372 0)
(0.165818 -0.00167885 0)
(0.162086 -0.00495479 1.02664e-24)
(0.154809 -0.00788683 1.52092e-22)
(0.144345 -0.0102792 0)
(0.13121 -0.0119807 -5.27811e-22)
(0.11605 -0.0128992 -5.7985e-22)
(0.0996099 -0.0130024 6.0389e-22)
(0.0826853 -0.0123217 6.03177e-22)
(0.0660781 -0.0109453 5.36987e-22)
(0.0505385 -0.00902028 -5.70918e-22)
(0.0367019 -0.00676504 8.73412e-24)
(0.0249696 -0.00440711 1.8415e-25)
(0.0157608 -0.00237439 -7.16816e-24)
(0.00889623 -0.000919026 0)
(0.00318279 0.000148234 0)
(0.00455956 -0.00011294 1.73095e-21)
(0.0116201 0.00116864 2.389e-22)
(0.0192639 0.00267162 0)
(0.029447 0.00476151 5.72321e-22)
(0.0421097 0.00707266 0)
(0.0567497 0.00921354 0)
(0.072959 0.0109965 5.13263e-22)
(0.0900748 0.0122236 0)
(0.107353 0.0127748 5.6172e-23)
(0.124011 0.0125803 -7.71101e-24)
(0.139281 0.0116208 -4.90156e-22)
(0.152451 0.0099335 -2.73297e-24)
(0.162909 0.00760753 3.06647e-22)
(0.170164 0.00478401 4.5341e-23)
(0.173878 0.00164291 0)
(0.173878 -0.00160768 0)
(0.170162 -0.00475173 9.31003e-25)
(0.162905 -0.00758065 -1.54863e-22)
(0.152445 -0.00991366 0)
(0.13927 -0.0116087 0)
(0.123997 -0.0125755 8.12944e-24)
(0.107336 -0.0127763 -7.89645e-24)
(0.0900551 -0.0122297 5.02899e-22)
(0.0729388 -0.0110054 -5.44553e-22)
(0.056731 -0.00922343 7.67052e-24)
(0.0420941 -0.00708191 -7.13746e-24)
(0.0294353 -0.00476905 0)
(0.019256 -0.00267716 -4.27494e-22)
(0.0116145 -0.00117227 -1.45137e-23)
(0.00455675 0.000110427 -9.16321e-22)
(0.00628966 -6.70241e-05 -9.8332e-22)
(0.014803 0.00141569 -6.6842e-24)
(0.0231776 0.00294627 4.86473e-22)
(0.0343442 0.00508394 4.8329e-22)
(0.0478931 0.00732591 -7.85167e-24)
(0.0632824 0.00934571 7.40919e-24)
(0.0801052 0.0109856 -6.34255e-23)
(0.0976752 0.0120675 -4.77386e-22)
(0.115261 0.0124959 1.002e-21)
(0.1321 0.0122169 -7.02196e-24)
(0.147453 0.0112217 7.17229e-24)
(0.160641 0.00955148 1.69877e-22)
(0.17108 0.00729255 -2.73749e-22)
(0.178308 0.00457712 -4.57916e-23)
(0.182004 0.00157087 -7.12331e-24)
(0.182004 -0.0015355 -6.52322e-24)
(0.178308 -0.0045447 2.12398e-25)
(0.171079 -0.0072656 -1.25782e-22)
(0.160637 -0.00953167 -1.6582e-22)
(0.147446 -0.0112097 0)
(0.132089 -0.0122125 0)
(0.115246 -0.0124981 0)
(0.0976579 -0.0120747 -5.0863e-22)
(0.0800866 -0.010996 7.13359e-24)
(0.0632645 -0.00935736 6.88498e-24)
(0.0478776 -0.00733708 -1.3729e-23)
(0.0343321 -0.00509333 6.6963e-24)
(0.0231693 -0.00295345 -3.97538e-24)
(0.0147969 -0.0014206 6.35336e-23)
(0.00628642 6.36301e-05 9.72347e-22)
(0.00841671 -1.38919e-05 0)
(0.018467 0.00164961 -4.12968e-22)
(0.0275172 0.00319114 2.1269e-23)
(0.0396759 0.00536472 -4.90009e-22)
(0.0540607 0.00751592 -3.73745e-22)
(0.0701477 0.00941157 6.69277e-24)
(0.08753 0.0109103 -4.80248e-22)
(0.105502 0.011855 9.23012e-22)
(0.12335 0.0121721 -4.86525e-22)
(0.140333 0.011821 4.10513e-22)
(0.155742 0.0108015 3.70789e-24)
(0.168929 0.00915751 -1.70607e-22)
(0.179337 0.00697187 1.31854e-22)
(0.186529 0.00436803 -3.74072e-23)
(0.190203 0.00149826 7.38769e-24)
(0.190203 -0.00146295 1.20125e-23)
(0.18653 -0.00433567 7.62329e-25)
(0.179337 -0.00694498 1.25709e-22)
(0.168928 -0.00913782 1.64138e-22)
(0.155739 -0.0107898 2.68493e-24)
(0.140326 -0.0118171 6.66076e-24)
(0.123338 -0.012175 -6.49405e-24)
(0.105487 -0.0118633 4.02925e-22)
(0.0875134 -0.0109221 0)
(0.0701309 -0.00942494 -3.77478e-22)
(0.0540456 -0.00752902 0)
(0.0396637 -0.00537609 3.85545e-22)
(0.0275085 -0.00320012 4.6899e-22)
(0.0184605 -0.00165602 -5.46218e-23)
(0.00841307 9.41923e-06 -1.33183e-21)
(0.0109783 4.45319e-05 -1.56808e-21)
(0.0226232 0.00186362 3.45598e-22)
(0.032289 0.00340462 -5.40426e-22)
(0.045443 0.0056007 0)
(0.0606045 0.00764275 7.00652e-22)
(0.0773375 0.00941498 -3.6486e-22)
(0.0952256 0.010776 -1.26011e-23)
(0.113549 0.0115927 -4.20596e-23)
(0.131617 0.0118101 0)
(0.148712 0.0113989 -4.19318e-22)
(0.164152 0.0103655 5.887e-24)
(0.177318 0.00875567 -2.04676e-24)
(0.187683 0.00664832 2.78877e-24)
(0.194833 0.00415843 3.12673e-24)
(0.198482 0.00142564 -6.30764e-24)
(0.198482 -0.00139057 -5.52625e-24)
(0.194835 -0.0041263 -3.11797e-23)
(0.187686 -0.00662163 -6.83885e-25)
(0.177319 -0.00873617 0)
(0.164151 -0.010354 0)
(0.148708 -0.0113953 0)
(0.131609 -0.0118137 0)
(0.113537 -0.011602 -4.1418e-22)
(0.0952112 -0.0107891 5.75275e-24)
(0.0773221 -0.00942999 3.9018e-22)
(0.06059 -0.00765778 -5.07644e-24)
(0.0454308 -0.0056141 -3.96733e-22)
(0.0322801 -0.00341554 1.31553e-24)
(0.0226163 -0.00187173 3.33952e-22)
(0.0109743 -5.02909e-05 2.9541e-21)
(0.0140076 0.000106146 1.65803e-21)
(0.0272774 0.00205243 2.86707e-24)
(0.0374983 0.00358625 6.4966e-22)
(0.0516437 0.00578937 0)
(0.0675155 0.00770797 -3.32122e-22)
(0.0848442 0.00936045 3.72658e-22)
(0.103185 0.0105882 3.33273e-22)
(0.121812 0.0112872 -3.97865e-23)
(0.140061 0.0114163 -3.48919e-22)
(0.157235 0.0109561 -3.3914e-22)
(0.172682 0.00991828 3.01794e-24)
(0.185813 0.00834953 4.71079e-25)
(0.196125 0.00632437 2.52413e-24)
(0.203227 0.00394975 6.40055e-23)
(0.206847 0.00135346 6.31854e-24)
(0.206848 -0.00131882 0)
(0.20323 -0.003918 3.24714e-23)
(0.19613 -0.006298 -6.16732e-25)
(0.185817 -0.00833031 0)
(0.172685 -0.00990709 0)
(0.157234 -0.010953 5.37763e-24)
(0.140056 -0.0114204 -3.31084e-22)
(0.121803 -0.0112973 -3.20856e-22)
(0.103173 -0.0106024 -2.95785e-22)
(0.0848305 -0.00937701 -2.01603e-25)
(0.067502 -0.00772487 2.50584e-22)
(0.0516317 -0.00580484 2.28262e-22)
(0.0374893 -0.00359923 -3.74032e-24)
(0.0272702 -0.00206243 1.44671e-22)
(0.0140032 -0.000113401 -3.434e-21)
(0.0175323 0.000168827 0)
(0.0324307 0.00221239 0)
(0.0431491 0.00373633 -6.75835e-22)
(0.0582735 0.00592892 3.74483e-24)
(0.0747844 0.00771448 -2.64462e-22)
(0.0926603 0.00925295 2.97372e-22)
(0.1114 0.0103526 -3.43443e-22)
(0.130286 0.0109447 -3.53358e-22)
(0.148678 0.0109965 3.47648e-22)
(0.165903 0.0104979 3.73283e-23)
(0.181337 0.00946414 -2.68681e-22)
(0.194417 0.0079422 0)
(0.204667 0.00600214 0)
(0.211715 0.00374319 -3.08931e-23)
(0.215305 0.00128213 0)
(0.215306 -0.00124809 1.40095e-25)
(0.211719 -0.00371199 -1.39736e-25)
(0.204673 -0.00597622 8.32848e-23)
(0.194424 -0.00792334 0)
(0.181342 -0.00945326 0)
(0.165906 -0.0104951 2.86837e-22)
(0.148677 -0.0110011 3.24622e-22)
(0.13028 -0.0109555 3.20392e-22)
(0.111391 -0.010368 3.0571e-22)
(0.0926485 -0.00927092 8.35839e-24)
(0.0747721 -0.00773316 -2.60278e-22)
(0.058262 -0.00594645 -3.76125e-22)
(0.0431402 -0.00375144 -7.07182e-22)
(0.0324234 -0.00222442 1.5963e-22)
(0.0175277 -0.000177782 1.87554e-21)
(0.0215749 0.000230571 0)
(0.0380807 0.00234144 0)
(0.0492443 0.00385558 -8.42311e-22)
(0.0653256 0.00601839 -6.75654e-23)
(0.0824018 0.00766631 4.94828e-22)
(0.100779 0.0090976 -2.97581e-22)
(0.119866 0.0100752 -2.51609e-22)
(0.138967 0.0105713 2.74859e-22)
(0.157468 0.0105563 0)
(0.174717 0.010029 2.98427e-22)
(0.190118 0.00900672 5.23824e-22)
(0.203134 0.00753641 3.74753e-25)
(0.213313 0.00568343 2.05915e-24)
(0.220303 0.00353979 -5.3792e-25)
(0.22386 0.00121198 0)
(0.223862 -0.00117871 0)
(0.220308 -0.00350929 5.0131e-25)
(0.213321 -0.0056581 -1.59047e-22)
(0.203143 -0.00751799 9.64386e-23)
(0.190126 -0.00899619 2.33614e-22)
(0.174723 -0.0100265 -2.80279e-22)
(0.15747 -0.0105613 -4.19378e-24)
(0.138965 -0.0105827 -2.48404e-22)
(0.119859 -0.0100914 3.80372e-24)
(0.100769 -0.00911684 2.10745e-22)
(0.082391 -0.00768667 -3.36054e-24)
(0.0653149 -0.00603793 1.40927e-22)
(0.0492357 -0.00387284 -7.48471e-23)
(0.0380736 -0.00235562 -6.69957e-22)
(0.0215701 -0.000241414 0)
(0.0261525 0.000289603 0)
(0.0442225 0.00243895 9.77361e-22)
(0.0557857 0.00394486 8.60825e-22)
(0.072791 0.00605774 7.11135e-23)
(0.0903588 0.0075684 -4.54301e-22)
(0.109193 0.00889957 2.02681e-22)
(0.128576 0.00976145 3.44816e-23)
(0.147852 0.0101727 -2.82455e-22)
(0.166429 0.0101007 1.07051e-25)
(0.183677 0.00955355 2.87314e-25)
(0.199027 0.0085493 -2.42207e-22)
(0.211967 0.00713451 9.18606e-23)
(0.222067 0.00536982 7.24185e-23)
(0.228994 0.00334042 -4.8563e-25)
(0.232516 0.0011433 0)
(0.232518 -0.00111094 0)
(0.229 -0.00331074 4.49446e-25)
(0.222077 -0.00534516 7.47704e-23)
(0.211978 -0.00711662 -9.72499e-23)
(0.199037 -0.00853915 -2.35158e-22)
(0.183686 -0.00955137 0)
(0.166434 -0.010106 2.26079e-22)
(0.147853 -0.0101846 2.48131e-22)
(0.128572 -0.00977841 6.56785e-24)
(0.109185 -0.00891992 -2.17951e-22)
(0.0903496 -0.00759027 0)
(0.0727813 -0.0060792 7.69383e-24)
(0.0557775 -0.00396426 8.27094e-22)
(0.0442156 -0.00245537 9.84603e-22)
(0.0261476 -0.000302495 -2.51538e-21)
(0.0312768 0.000344448 0)
(0.0508492 0.00250546 -2.14592e-21)
(0.0627734 0.00400498 -1.06149e-21)
(0.0806591 0.00604794 0)
(0.0986469 0.00742628 8.97374e-24)
(0.117895 0.00866391 -4.17859e-23)
(0.137524 0.00941715 3.11727e-23)
(0.156939 0.00975436 0)
(0.17556 0.00963425 0)
(0.192784 0.00907538 2.0963e-22)
(0.208066 0.00809475 1.0218e-22)
(0.220919 0.00673853 -9.41495e-23)
(0.230933 0.0050626 -7.23325e-23)
(0.237792 0.00314581 2.05316e-23)