/*--------------------------------*- C++ -*----------------------------------*\
| =========                 |                                                 |
| \\      /  F ield         | OpenFOAM: The Open Source CFD Toolbox           |
|  \\    /   O peration     | Version:  2.4.0                                 |
|   \\  /    A nd           | Web:      www.OpenFOAM.org                      |
|    \\/     M anipulation  |                                                 |
\*---------------------------------------------------------------------------*/
FoamFile
{
    version     2.0;
    format      ascii;
    class       volScalarField;
    location    "0.02";
    object      p;
}
// * * * * * * * * * * * * * * * * * * * * * * * * * * * * * * * * * * * * * //

dimensions      [0 2 -2 0 0 0 0];

internalField   nonuniform List<scalar> 
7200
(
0.000117935
-0.0712352
-0.0240868
0.256913
0.61217
0.919896
1.18283
1.41883
1.61258
1.7227
1.70725
1.54192
1.22841
0.791609
0.274628
-0.269507
-0.783856
-1.21579
-1.52305
-1.68196
-1.69201
-1.5782
-1.38249
-1.14574
-0.882637
-0.574854
-0.219545
0.0613599
0.108373
0.0369446
-0.0129236
-0.0804901
0.0326155
0.3585
0.698663
0.969692
1.19815
1.40002
1.55741
1.63353
1.59484
1.42402
1.12537
0.721615
0.249994
-0.244517
-0.713736
-1.11301
-1.4058
-1.57043
-1.60371
-1.52371
-1.36408
-1.16124
-0.932494
-0.661376
-0.321137
0.00469424
0.117633
0.0500071
-0.0296146
-0.0771186
0.107085
0.458444
0.769233
1.00259
1.19885
1.36855
1.49269
1.53955
1.48276
1.3103
1.02798
0.656215
0.227089
-0.221317
-0.648244
-1.01587
-1.29269
-1.45919
-1.51058
-1.45968
-1.33306
-1.16215
-0.965469
-0.731985
-0.421105
-0.0697539
0.114291
0.0666914
-0.048882
-0.0574168
0.194765
0.551217
0.824569
1.02264
1.18986
1.33074
1.4265
1.44997
1.38023
1.20892
0.942536
0.599374
0.207255
-0.201271
-0.591363
-0.930675
-1.19186
-1.35743
-1.4218
-1.39416
-1.29569
-1.1534
-0.985623
-0.787373
-0.513919
-0.15743
0.0946322
0.0859588
-0.0689806
-0.0182668
0.293309
0.635773
0.867013
1.03232
1.1727
1.28733
1.35848
1.36286
1.28385
1.11565
0.865008
0.548212
0.189458
-0.183321
-0.540196
-0.853399
-1.09913
-1.26178
-1.33547
-1.3268
-1.25275
-1.13651
-0.995433
-0.829885
-0.598534
-0.255992
0.0555242
0.106073
-0.0868714
0.042488
0.398082
0.709265
0.897103
1.03263
1.14818
1.23901
1.28889
1.27778
1.19239
1.02879
0.793668
0.501464
0.173242
-0.166993
-0.493468
-0.782308
-1.01277
-1.17101
-1.25113
-1.25786
-1.20491
-1.11228
-0.995891
-0.860058
-0.672097
-0.360804
-0.00520211
0.12399
-0.0983375
0.125338
0.503124
0.768915
0.915171
1.02419
1.117
1.18669
1.21854
1.19515
1.10586
0.948005
0.72805
0.458747
0.158463
-0.152136
-0.45079
-0.716935
-0.932465
-1.08513
-1.16922
-1.18816
-1.15307
-1.0814
-0.987616
-0.878221
-0.731828
-0.465904
-0.0880451
0.135487
-0.0981832
0.22865
0.602082
0.81311
0.922062
1.00776
1.08
1.13131
1.14821
1.1154
1.02426
0.873003
0.667748
0.419728
0.144996
-0.13862
-0.411826
-0.656873
-0.857919
-1.00416
-1.09016
-1.11845
-1.09817
-1.04473
-0.971364
-0.885217
-0.776108
-0.564935
-0.191374
0.13536
-0.0805021
0.348515
0.688864
0.841475
0.918924
0.984128
1.03807
1.07375
1.07852
1.03878
0.947472
0.803417
0.612319
0.384061
0.132713
-0.126312
-0.376227
-0.601681
-0.78877
-0.927975
-1.01421
-1.04938
-1.0411
-1.00313
-0.947931
-0.882191
-0.804559
-0.6518
-0.311281
0.117698
-0.0390489
0.47882
0.758224
0.854741
0.906983
0.954096
0.992106
1.01481
1.01
0.965454
0.875349
0.738883
0.561349
0.35143
0.121499
-0.115091
-0.343675
-0.550945
-0.724657
-0.856432
-0.941536
-0.981476
-0.982651
-0.957496
-0.918103
-0.870368
-0.817909
-0.721248
-0.441649
0.0762543
0.0323013
0.611535
0.806303
0.854539
0.887396
0.918447
0.942988
0.95524
0.943096
0.895539
0.807716
0.679057
0.514463
0.321554
0.111251
-0.104851
-0.313885
-0.50429
-0.665238
-0.78936
-0.872257
-0.915178
-0.923569
-0.908721
-0.882665
-0.850902
-0.817789
-0.769415
-0.574442
0.00490287
0.139049
0.737223
0.831035
0.843112
0.861162
0.877982
0.891581
0.895673
0.87816
0.829091
0.744386
0.623619
0.471323
0.294181
0.101878
-0.0954987
-0.286606
-0.461378
-0.610194
-0.726576
-0.806434
-0.850845
-0.864497
-0.857666
-0.842419
-0.824793
-0.806439
-0.794231
-0.700222
-0.101856
0.285571
0.845727
0.832383
0.82297
0.829085
0.833534
0.838706
0.836668
0.815475
0.766124
0.68517
0.572267
0.431621
0.269088
0.0932993
-0.0869503
-0.261609
-0.421898
-0.559226
-0.667894
-0.744084
-0.788762
-0.805993
-0.80515
-0.798199
-0.792845
-0.786372
-0.795657
-0.808826
-0.248396
0.474669
0.926966
0.812363
0.796544
0.791791
0.785977
0.785111
0.778696
0.755255
0.706615
0.629871
0.524718
0.395075
0.246071
0.0854427
-0.0791312
-0.238693
-0.385572
-0.512052
-0.613119
-0.685189
-0.729147
-0.748531
-0.751926
-0.750876
-0.755684
-0.760018
-0.775704
-0.890168
-0.437519
0.707226
0.971765
0.774844
0.765867
0.74979
0.736216
0.731464
0.722145
0.697656
0.650515
0.578295
0.480708
0.361431
0.22495
0.0782433
-0.071975
-0.217675
-0.352143
-0.468408
-0.562058
-0.629698
-0.67216
-0.692503
-0.698663
-0.701361
-0.71382
-0.72941
-0.738243
-0.935072
-0.670107
0.982002
0.972645
0.725165
0.732342
0.703567
0.685173
0.67833
0.667334
0.642786
0.597747
0.530247
0.43999
0.330457
0.205562
0.0716432
-0.065422
-0.198389
-0.321379
-0.428047
-0.514517
-0.57754
-0.617911
-0.638231
-0.64593
-0.650575
-0.667739
-0.695955
-0.688611
-0.936055
-0.944919
1.29559
0.924463
0.669592
0.696618
0.653682
0.633746
0.626174
0.614515
0.590708
0.548222
0.485537
0.402336
0.301941
0.18776
0.0655905
-0.0594189
-0.180688
-0.293068
-0.39074
-0.470307
-0.528625
-0.566465
-0.58597
-0.594196
-0.599421
-0.618005
-0.660301
-0.633075
-0.887971
-1.25855
1.64255
0.824868
0.614694
0.658577
0.600866
0.582764
0.575362
0.563886
0.541449
0.501832
0.44398
0.367531
0.27569
0.17141
0.0600386
-0.0539177
-0.164438
-0.267015
-0.356273
-0.429243
-0.482846
-0.517852
-0.535921
-0.54383
-0.548731
-0.565352
-0.622335
-0.578204
-0.788465
-1.60556
2.0157
0.674496
0.566697
0.617446
0.546075
0.53294
0.526171
0.515599
0.495004
0.458463
0.405398
0.335376
0.251528
0.156392
0.0549452
-0.0488754
-0.149518
-0.243045
-0.324446
-0.391145
-0.44009
-0.472067
-0.48824
-0.495113
-0.499223
-0.510738
-0.581286
-0.530228
-0.638173
-1.97877
2.40654
0.476914
0.530908
0.572
0.490511
0.48482
0.478808
0.469764
0.451342
0.417994
0.369619
0.305687
0.229295
0.142598
0.0502725
-0.044253
-0.135819
-0.220996
-0.295074
-0.355841
-0.400233
-0.42908
-0.443038
-0.448258
-0.451447
-0.455371
-0.535933
-0.494455
-0.440658
-2.36966
2.80576
0.238305
0.511248
0.52083
0.435585
0.438755
0.433434
0.426451
0.410408
0.380298
0.336477
0.278291
0.208842
0.12993
0.0459862
-0.0400154
-0.12324
-0.200719
-0.267984
-0.323164
-0.363149
-0.388837
-0.400388
-0.403428
-0.405761
-0.400666
-0.484872
-0.474812
-0.202102
-2.76895
3.2038
-0.0330561
0.509966
0.462629
0.382844
0.394887
0.390188
0.385695
0.372135
0.345249
0.305815
0.253028
0.190036
0.118296
0.0420552
-0.0361308
-0.111692
-0.18208
-0.243015
-0.292955
-0.328709
-0.351267
-0.360326
-0.360766
-0.362311
-0.348175
-0.426799
-0.473553
0.0692189
-3.16706
3.59141
-0.327469
0.527537
0.396461
0.333848
0.353154
0.349199
0.347495
0.336439
0.312717
0.277482
0.22975
0.172751
0.107615
0.0384512
-0.0325703
-0.101092
-0.164954
-0.220016
-0.265062
-0.296781
-0.316287
-0.32285
-0.320405
-0.321041
-0.299465
-0.360783
-0.491157
0.363602
-3.55473
3.96011
-0.63455
0.56275
0.321967
0.290045
0.313325
0.310608
0.31181
0.303233
0.282575
0.251335
0.208316
0.156875
0.0978121
0.0351485
-0.0293079
-0.0913649
-0.149227
-0.198849
-0.23934
-0.267234
-0.283805
-0.28792
-0.282485
-0.281724
-0.255991
-0.286473
-0.526424
0.670662
-3.9235
4.30257
-0.943968
0.612966
0.239496
0.252633
0.275052
0.274565
0.278568
0.272425
0.254694
0.22724
0.188598
0.142302
0.0888194
0.0321237
-0.0263196
-0.0824418
-0.134793
-0.179382
-0.215651
-0.239938
-0.253727
-0.25546
-0.247162
-0.244016
-0.218956
-0.204223
-0.576719
0.980061
-4.26603
4.61291
-1.2461
0.67449
0.150128
0.222449
0.23793
0.241233
0.247658
0.243923
0.228948
0.205066
0.170475
0.128936
0.0805739
0.0293555
-0.0235838
-0.0742598
-0.121556
-0.161494
-0.193866
-0.214762
-0.225956
-0.225358
-0.214595
-0.207516
-0.189205
-0.115119
-0.638357
1.28216
-4.57643
4.8868
-1.53254
0.743011
0.0556123
0.199894
0.201564
0.210769
0.218944
0.217639
0.205213
0.184695
0.153834
0.116688
0.0730179
0.0268242
-0.0210805
-0.0667612
-0.109427
-0.145072
-0.173861
-0.191578
-0.2004
-0.197472
-0.184941
-0.171833
-0.167143
-0.0209173
-0.707033
1.56857
-4.8504
5.12148
-1.79647
0.814046
-0.0417852
0.1849
0.165638
0.183312
0.192269
0.193489
0.183364
0.16601
0.138569
0.105476
0.0660986
0.024512
-0.0187916
-0.0598929
-0.098324
-0.130011
-0.155522
-0.170259
-0.176969
-0.17164
-0.158338
-0.13665
-0.152709
0.0761099
-0.778274
1.83244
-5.08515
5.31566
-2.03284
0.88335
-0.139479
0.17695
0.129954
0.158961
0.167461
0.171393
0.163279
0.148905
0.124581
0.0952242
0.0597672
0.0224023
-0.0167006
-0.0536061
-0.0881705
-0.11621
-0.13874
-0.150679
-0.155578
-0.147684
-0.13488
-0.101771
-0.14539
0.173371
-0.847842
2.06871
-5.27941
5.46932
-2.23836
0.947229
-0.234794
0.17514
0.0944723
0.137757
0.144348
0.151276
0.144838
0.133279
0.111778
0.0858616
0.0539786
0.0204798
-0.0147921
-0.0478558
-0.0788965
-0.103577
-0.123413
-0.132715
-0.136145
-0.125425
-0.114601
-0.0671525
-0.144285
0.268184
-0.912053
2.27408
-5.43318
5.58354
-2.41136
1.00276
-0.325182
0.178277
0.0593137
0.119668
0.122769
0.13306
0.127925
0.119036
0.100072
0.0773232
0.0486913
0.0187307
-0.013052
-0.0426005
-0.0704371
-0.0920267
-0.109445
-0.116249
-0.118588
-0.104694
-0.0974625
-0.0329123
-0.148204
0.357996
-0.967993
2.44689
-5.54755
5.66022
-2.55162
1.04791
-0.408412
0.185
0.0247489
0.10458
0.102581
0.116669
0.112427
0.106088
0.0893827
0.0695486
0.0438668
0.0171418
-0.0114675
-0.0378018
-0.0627321
-0.0814768
-0.0967478
-0.101166
-0.102825
-0.085339
-0.0833425
0.000684698
-0.155784
0.440573
-1.01362
2.5869
-5.6244
5.70184
-2.66005
1.08149
-0.482708
0.193898
-0.00883194
0.0922993
0.0836669
0.102022
0.0982367
0.0943489
0.0796326
0.0624813
0.0394694
0.0157013
-0.0100265
-0.0334243
-0.0557255
-0.0718518
-0.0852365
-0.0873578
-0.0887695
-0.0672353
-0.0720363
0.0332562
-0.165613
0.514136
-1.04778
2.695
-5.66624
5.71126
-2.7384
1.10314
-0.546826
0.203627
-0.0409628
0.0825568
0.065943
0.0890295
0.085254
0.0837392
0.0707508
0.056069
0.0354663
0.0143978
-0.00871812
-0.0294352
-0.0493655
-0.0630812
-0.0748317
-0.0747232
-0.0763299
-0.0502908
-0.0632655
0.064346
-0.17634
0.577441
-1.07009
2.77294
-5.67596
5.69157
-2.78901
1.11315
-0.600075
0.213
-0.0711505
0.0750267
0.0493574
0.0775939
0.0733855
0.0741818
0.0626705
0.0502628
0.0318269
0.0132212
-0.00753199
-0.0258042
-0.0436035
-0.0550992
-0.0654576
-0.0631695
-0.0654053
-0.0344461
-0.0566923
0.0934723
-0.186773
0.629797
-1.08085
2.82304
-5.65663
5.64592
-2.81452
1.1123
-0.642282
0.221054
-0.098923
0.0693439
0.033889
0.067608
0.0625465
0.0656029
0.0553298
0.0450171
0.0285228
0.0121615
-0.00645861
-0.0225033
-0.0383944
-0.0478447
-0.0570418
-0.0526126
-0.0558869
-0.0196738
-0.0519412
0.120176
-0.195936
0.671036
-1.08085
2.84797
-5.61142
5.57743
-2.81776
1.10174
-0.673723
0.22708
-0.123871
0.0651278
0.0195423
0.0589557
0.0526614
0.0579315
0.0486712
0.040289
0.0255278
0.0112098
-0.00548913
-0.0195065
-0.0336959
-0.0412612
-0.0495147
-0.0429784
-0.0476577
-0.00597303
-0.0486205
0.144061
-0.20311
0.701441
-1.07123
2.85053
-5.54347
5.48913
-2.80154
1.08277
-0.695031
0.230634
-0.14568
0.0620038
0.0063398
0.0515128
0.0436633
0.0510983
0.0426414
0.0360383
0.0228177
0.0103576
-0.00461524
-0.0167898
-0.0294684
-0.0352964
-0.0428089
-0.034202
-0.0405941
0.00663715
-0.0463463
0.164827
-0.207835
0.721656
-1.05329
2.83354
-5.45581
5.38392
-2.76859
1.05678
-0.707094
0.231512
-0.164148
0.0596237
-0.00568597
0.04515
0.0354941
0.0450363
0.0371916
0.0322274
0.0203699
0.00959681
-0.00382919
-0.0143311
-0.0256746
-0.0299023
-0.0368589
-0.0262274
-0.0345684
0.0181264
-0.0447623
0.182285
-0.209893
0.732579
-1.02841
2.79972
-5.35133
5.26452
-2.72149
1.02513
-0.710953
0.229721
-0.179193
0.0576811
-0.0165014
0.0397362
0.0281031
0.0396801
0.0322767
0.0288207
0.0181638
0.00891996
-0.00312372
-0.01211
-0.0222794
-0.0250348
-0.031601
-0.0190068
-0.0294517
0.0284615
-0.0435557
0.196366
-0.209273
0.735268
-0.997943
2.75166
-5.23276
5.13344
-2.66265
0.989105
-0.707723
0.225432
-0.190849
0.0559226
-0.0260794
0.0351419
0.0214468
0.0349665
0.0278557
0.0257846
0.0161801
0.00831995
-0.00249199
-0.0101074
-0.0192497
-0.0206537
-0.0269737
-0.0124992
-0.0251176
0.0376144
-0.042469
0.207115
-0.206129
0.730853
-0.963149
2.69178
-5.10261
4.993
-2.59428
0.949853
-0.698519
0.218932
-0.199251
0.0541526
-0.0344062
0.0312426
0.0154867
0.0308343
0.0238908
0.0230876
0.0144012
0.00779009
-0.00192759
-0.00830618
-0.0165545
-0.016722
-0.0229171
-0.00666872
-0.0214452
0.0455685
-0.0413044
0.214676
-0.200732
0.720467
-0.925172
2.6223
-4.96321
4.84531
-2.51836
0.9084
-0.684409
0.21058
-0.204616
0.0522336
-0.0414851
0.0279224
0.010188
0.0272248
0.0203478
0.0206999
0.0128107
0.00732403
-0.00142444
-0.00669022
-0.0141642
-0.0132061
-0.019374
-0.00148351
-0.0183224
0.0523236
-0.0399246
0.219271
-0.193428
0.705197
-0.885017
2.54522
-4.81663
4.69224
-2.43671
0.865633
-0.666378
0.200765
-0.207224
0.0500824
-0.0473394
0.0250763
0.00551877
0.0240822
0.017195
0.0185933
0.0113936
0.00691583
-0.00097687
-0.0052448
-0.0120514
-0.0100751
-0.0162899
0.00308625
-0.0156481
0.0578985
-0.0382484
0.221185
-0.184594
0.686043
-0.84355
2.46237
-4.66474
4.53544
-2.3509
0.822305
-0.645313
0.18988
-0.207392
0.047663
-0.0520127
0.0226123
0.00144778
0.0213541
0.0144036
0.0167417
0.0101359
0.00655988
-0.000579549
-0.00395632
-0.0101898
-0.00730053
-0.0136131
0.00706942
-0.0133341
0.0623314
-0.0362435
0.220736
-0.174615
0.663907
-0.801506
2.37533
-4.50919
4.37636
-2.26232
0.779046
-0.621991
0.178296
-0.205458
0.0449782
-0.0555672
0.0204523
-0.00205594
0.0189914
0.0119466
0.0151202
0.00902491
0.00625092
-0.000227479
-0.00281224
-0.00855538
-0.00485611
-0.0112957
0.0104952
-0.0113057
0.0656793
-0.0339177
0.218258
-0.163854
0.639582
-0.759496
2.28553
-4.3514
4.21622
-2.17217
0.736375
-0.597083
0.166345
-0.20176
0.0420595
-0.058081
0.0185319
-0.00502422
0.0169492
0.00979929
0.0137059
0.00804869
0.00598399
8.40169e-05
-0.001801
-0.00712527
-0.00271741
-0.00929343
0.0133936
-0.00950194
0.0680152
-0.0313084
0.214087
-0.152642
0.613745
-0.718022
2.19416
-4.19256
4.05605
-2.08144
0.694706
-0.571158
0.154315
-0.196623
0.0389582
-0.0596451
0.0168008
-0.00749018
0.0151868
0.00793825
0.0124773
0.00719627
0.0057545
0.000359279
-0.000911919
-0.00587841
-0.000861506
-0.00756608
0.0157967
-0.00787499
0.0694248
-0.0284733
0.208542
-0.141267
0.586974
-0.677484
2.10225
-4.0337
3.89669
-1.99096
0.654361
-0.54469
0.142445
-0.190351
0.0357372
-0.0603588
0.0152207
-0.00948838
0.0136674
0.00634152
0.0114148
0.00645747
0.00555818
0.000602327
-0.000135086
-0.00479535
0.000733226
-0.0060775
0.0177377
-0.00638897
0.0700031
-0.0254817
0.201919
-0.129972
0.559745
-0.638192
2.01063
-3.87563
3.73883
-1.9014
0.615579
-0.518068
0.130925
-0.183219
0.0324634
-0.0603259
0.0137643
-0.0110548
0.0123587
0.00498818
0.0105
0.00582284
0.00539109
0.000816848
0.000538703
-0.00385825
0.00208735
-0.00479576
0.019252
-0.00501835
0.0698501
-0.0224066
0.194487
-0.118952
0.532445
-0.60038
1.92001
-3.71901
3.58298
-1.81328
0.578529
-0.491605
0.1199
-0.175469
0.0292026
-0.0596511
0.0124134
-0.0122267
0.0112325
0.00385832
0.00971663
0.00528356
0.00524964
0.00100621
0.001118
-0.00305083
0.00322049
-0.00369295
0.020376
-0.00374637
0.069067
-0.0193193
0.186479
-0.108361
0.505385
-0.56421
1.8309
-3.56435
3.42955
-1.72701
0.543313
-0.465547
0.109475
-0.16731
0.0260148
-0.0584368
0.0111569
-0.0130418
0.0102644
0.00293285
0.00904954
0.00483143
0.00513057
0.00117346
0.00161077
-0.00235835
0.0041514
-0.00274499
0.0211471
-0.00256301
0.0677538
-0.0162848
0.178098
-0.0983086
0.478806
-0.529786
1.74371
-3.41205
3.27883
-1.64287
0.509981
-0.440085
0.0997173
-0.158919
0.0229519
-0.05678
0.00998907
-0.0135381
0.00943352
0.00219349
0.00848532
0.00445877
0.00503092
0.00132133
0.00202446
-0.00176761
0.00489813
-0.0019314
0.0216028
-0.0014634
0.0660054
-0.0133591
0.169513
-0.0888734
0.452891
-0.497158
1.65874
-3.26237
3.131
-1.56106
0.478537
-0.415358
0.0906666
-0.150439
0.0200563
-0.0547712
0.00890809
-0.0137532
0.00872257
0.00162273
0.00801195
0.00415842
0.0049481
0.00145221
0.00236602
-0.00126683
0.00547791
-0.00123499
0.0217804
-0.000446158
0.0639107
-0.0105878
0.160863
-0.0801015
0.42777
-0.466337
1.57619
-3.11551
2.98618
-1.4817
0.448947
-0.391465
0.082336
-0.14199
0.0173596
-0.052492
0.00791423
-0.0137235
0.00811691
0.00120388
0.00761884
0.00392369
0.00487983
0.00156821
0.00264194
-0.000845636
0.00590719
-0.000641414
0.0217161
0.000487991
0.0615504
-0.00800524
0.15226
-0.0720139
0.403535
-0.437294
1.49615
-2.97156
2.8444
-1.40483
0.421149
-0.368469
0.0747188
-0.133662
0.0148837
-0.0500154
0.00700889
-0.0134839
0.00760456
0.000921044
0.00729671
0.00374838
0.00482409
0.00167118
0.00285822
-0.000494952
0.00620162
-0.000138919
0.0214445
0.00133733
0.0589967
-0.00563519
0.143792
-0.0646103
0.38024
-0.409976
1.41869
-2.83057
2.70566
-1.33044
0.395059
-0.346406
0.0677928
-0.125526
0.012641
-0.0474049
0.00619377
-0.0130672
0.00717574
0.000759304
0.00703749
0.00362673
0.00477919
0.00176264
0.00302046
-0.000206911
0.00637591
0.000282052
0.0209982
0.00209996
0.0563126
-0.00349145
0.135528
-0.057874
0.357914
-0.384303
1.34379
-2.69253
2.5699
-1.25851
0.370572
-0.325288
0.0615234
-0.117636
0.0106354
-0.0447148
0.00547007
-0.0125037
0.00682245
0.000704712
0.0068343
0.00355341
0.00474372
0.00184385
0.00313385
2.51867e-05
0.0064438
0.00062927
0.0204074
0.00277446
0.0535521
-0.00157901
0.127517
-0.051775
0.336561
-0.360182
1.2714
-2.55739
2.43702
-1.18894
0.347575
-0.305108
0.0558674
-0.110028
0.00886384
-0.0419908
0.00483826
-0.0118208
0.00653833
0.000744364
0.00668137
0.00352351
0.00471655
0.00191584
0.00320313
0.000206958
0.006418
0.000908902
0.0196993
0.00336022
0.0507607
0.000104543
0.119795
-0.0462735
0.31617
-0.337503
1.20142
-2.42505
2.3069
-1.12163
0.325944
-0.285846
0.0507753
-0.102728
0.00731742
-0.0392704
0.00429778
-0.0110432
0.00631833
0.000866516
0.00657385
0.00353262
0.00469675
0.00197939
0.00323259
0.000343089
0.00631007
0.00112579
0.0188983
0.00385759
0.0479756
0.00156764
0.112386
-0.0413226
0.296715
-0.316151
1.13376
-2.29541
2.1794
-1.05645
0.305552
-0.26747
0.0461933
-0.095751
0.00598273
-0.0365835
0.0038471
-0.0101922
0.00615845
0.00106065
0.00650786
0.00357674
0.00468367
0.00203507
0.00322611
0.000437317
0.00613038
0.00128373
0.0180257
0.00426796
0.0452268
0.00282335
0.105305
-0.0368707
0.278163
-0.296003
1.06827
-2.16834
2.05438
-0.99327
0.286269
-0.249944
0.0420656
-0.0891041
0.00484311
-0.0339538
0.00348385
-0.0092863
0.00605571
0.00131747
0.00648038
0.00365238
0.00467684
0.00208327
0.00318711
0.000492545
0.00588806
0.0013855
0.0170997
0.0045935
0.0425378
0.00388811
0.0985578
-0.0328633
0.260472
-0.276933
1.00481
-2.04368
1.93165
-0.931936
0.267964
-0.233224
0.0383355
-0.0827894
0.00387976
-0.031399
0.00320495
-0.00834064
0.00600802
0.00162902
0.00648914
0.00375647
0.00467599
0.00212417
0.00311854
0.000510922
0.00559094
0.00143304
0.0161352
0.00483708
0.0399261
0.00478057
0.0921468
-0.0292443
0.243597
-0.258814
0.943225
-1.92128
1.81107
-0.872299
0.250508
-0.217266
0.0349462
-0.0768044
0.00307282
-0.0289317
0.00300702
-0.00736744
0.00601401
0.00198868
0.00653266
0.00388648
0.00468102
0.00215781
0.00302289
0.000493838
0.00524552
0.00142754
0.0151445
0.00500193
0.0374044
0.00552041
0.0860691
-0.025958
0.227494
-0.24152
0.883361
-1.80097
1.69245
-0.814206
0.233774
-0.202027
0.0318426
-0.071144
0.00240224
-0.0265603
0.00288665
-0.00637606
0.00607318
0.00239117
0.00661017
0.00404031
0.00469202
0.00218407
0.00290218
0.00044198
0.00485697
0.00136935
0.0141366
0.00509124
0.0349809
0.00612758
0.0803194
-0.0229494
0.212116
-0.224926
0.825063
-1.6826
1.57565
-0.757516
0.217642
-0.187463
0.0289713
-0.0658011
0.00184857
-0.0242896
0.00284075
-0.00537309
0.00618581
0.00283258
0.00672152
0.00421642
0.0047092
0.00220269
0.00275794
0.000355414
0.00442912
0.00125804
0.0131181
0.00510792
0.0326601
0.00662137
0.0748906
-0.0201655
0.197422
-0.208915
0.768184
-1.566
1.4605
-0.702094
0.201997
-0.17354
0.026282
-0.0607678
0.00139376
-0.0221209
0.00286691
-0.00436245
0.006353
0.00331038
0.00686728
0.00441371
0.00473294
0.00221328
0.0025912
0.000233529
0.00396443
0.00109239
0.0120926
0.0050542
0.0304434
0.0070197
0.0697748
-0.0175563
0.183373
-0.19337
0.712587
-1.45103
1.34688
-0.647826
0.186729
-0.160226
0.0237281
-0.0560365
0.00102178
-0.0200531
0.00296382
-0.00334562
0.00657679
0.00382333
0.00704866
0.00463161
0.00476373
0.00221532
0.00240252
7.50651e-05
0.00346405
0.000870252
0.0110616
0.00493122
0.0283296
0.00733843
0.0649642
-0.0150754
0.16994
-0.178186
0.658157
-1.33756
1.23467
-0.594624
0.171743
-0.147501
0.0212675
-0.0516002
0.000719299
-0.0180825
0.00313156
-0.00232174
0.00686023
0.00437156
0.00726746
0.00487011
0.00480217
0.00220823
0.00219194
-0.000121824
0.00292783
0.000588468
0.0100242
0.00473874
0.0263147
0.00759072
0.0604517
-0.012681
0.157101
-0.163268
0.604803
-1.22549
1.12383
-0.542439
0.156958
-0.135359
0.0188643
-0.0474532
0.000476292
-0.0162034
0.00337195
-0.0012877
0.00720743
0.00495654
0.00752615
0.00512964
0.004849
0.00219127
0.00195899
-0.000359616
0.00235425
0.000242851
0.00897698
0.00447475
0.0243931
0.0077864
0.0562316
-0.0103375
0.14485
-0.148534
0.552476
-1.11475
1.01433
-0.491275
0.142309
-0.123808
0.0164896
-0.043592
0.000286685
-0.0144082
0.00368895
-0.000238284
0.0076237
0.00558096
0.0078279
0.00541115
0.00490509
0.0021636
0.00170275
-0.000641485
0.0017406
-0.000171989
0.00791483
0.00413515
0.0225568
0.00793132
0.0523003
-0.00801642
0.133195
-0.133924
0.50118
-1.00534
0.906261
-0.441215
0.127763
-0.112879
0.0141237
-0.0400152
0.000149056
-0.0126872
0.0040889
0.000833821
0.00811563
0.00624878
0.00817652
0.0057161
0.00497139
0.00212429
0.00142179
-0.000971261
0.0010829
-0.000662712
0.0068303
0.00371347
0.0207963
0.00802664
0.0486563
-0.00569851
0.122166
-0.119403
0.450995
-0.897334
0.799826
-0.392447
0.113319
-0.102627
0.0117574
-0.0367239
6.72532e-05
-0.0110292
0.00458088
0.00193792
0.00869124
0.00696529
0.00857649
0.00604647
0.00504901
0.00207228
0.00111415
-0.00135341
0.000375873
-0.00123737
0.00571405
0.00320046
0.0191001
0.00806823
0.0453007
-0.00337536
0.11182
-0.104972
0.402111
-0.790949
0.695414
-0.345307
0.0990233
-0.0931381
0.00939482
-0.033722
5.11154e-05
-0.00942068
0.00517703
0.00308539
0.0093601
0.00773696
0.00903311
0.00640475
0.00513915
0.00200641
0.00077742
-0.00179318
-0.000386953
-0.00190559
0.00455466
0.00258385
0.0174547
0.0080459
0.042237
-0.00105166
0.102242
-0.0906795
0.354865
-0.68657
0.593689
-0.300338
0.0849838
-0.0845326
0.00705499
-0.0310149
0.000117008
-0.0078462
0.00589258
0.00428939
0.0101332
0.00857134
0.00955227
0.00679383
0.00524313
0.00192544
0.00040874
-0.00229645
-0.00121308
-0.00267839
0.00333893
0.00184829
0.0158444
0.00794293
0.039471
0.0012525
0.0935524
-0.0766355
0.309801
-0.584861
0.495698
-0.258347
0.0713779
-0.0769622
0.00477221
-0.0286086
0.00028682
-0.00628875
0.00674469
0.00556381
0.011022
0.00947627
0.0101398
0.00721668
0.00536221
0.00182816
5.19837e-06
-0.00286903
-0.00211035
-0.00356721
0.00205297
0.000976474
0.0142524
0.00773706
0.0370082
0.00350179
0.085904
-0.0630199
0.267727
-0.486873
0.40296
-0.220394
0.0584025
-0.0705799
0.00258038
-0.0264988
0.000583844
-0.00472593
0.00775179
0.00692551
0.0120388
0.0104612
0.0108021
0.007677
0.00549762
0.00171341
-0.000436837
-0.00351726
-0.00308814
-0.00458437
0.000679867
-5.01153e-05
0.0126559
0.00740463
0.0348443
0.0056613
0.07945
-0.0500322
0.229707
-0.394123
0.317559
-0.188006
0.0461985
-0.0655343
0.000504502
-0.02466
0.0010476
-0.00311057
0.00895526
0.0084145
0.0132158
0.0115522
0.0115578
0.00818617
0.00565308
0.00157771
-0.000928546
-0.00425954
-0.00417256
-0.00576216
-0.000820584
-0.00127322
0.0110073
0.00690536
0.0329529
0.00770453
0.0743387
-0.0378163
0.19727
-0.308698
0.24419
-0.165002
0.0355725
-0.062351
-0.00123437
-0.0231417
0.00181779
-0.00138328
0.0104668
0.0101025
0.0146338
0.0128019
0.0124525
0.0087672
0.00583937
0.00141089
-0.00149242
-0.00514133
-0.00541612
-0.00718181
-0.00252072
-0.00280591
0.00924599
0.00609697
0.031382
0.00940613
0.0710954
-0.0271856
0.174245
-0.235293
0.196603
-0.161842
0.0320242
-0.0634283
-0.00123378
-0.0225864
0.00324384
0.000195953
0.0123275
0.0118271
0.0162494
0.0141018
0.0134442
0.00936692
0.0060543
0.00121458
-0.00207565
-0.00612116
-0.00671016
-0.00880034
-0.00425723
-0.00469011
0.00763441
0.00462707
0.0307799
0.00935434
0.0721312
-0.0236607
0.171103
-0.187667
0.00105035
-0.07037
-0.0233487
0.257494
0.612726
0.920513
1.18354
1.41964
1.61345
1.72357
1.70806
1.54262
1.229
0.792104
0.275059
-0.269113
-0.783482
-1.21543
-1.52269
-1.6816
-1.69165
-1.57784
-1.38214
-1.14539
-0.882288
-0.574504
-0.219191
0.0617199
0.108736
0.0373104
-0.0120089
-0.0796244
0.0333087
0.359063
0.699231
0.970335
1.19889
1.40085
1.55828
1.63439
1.59563
1.42471
1.12595
0.722103
0.250423
-0.244123
-0.713361
-1.11265
-1.40543
-1.57006
-1.60335
-1.52335
-1.36373
-1.16089
-0.932144
-0.661026
-0.320784
0.00505318
0.117994
0.0503694
-0.0286886
-0.0762783
0.107744
0.459006
0.769819
1.00325
1.19961
1.36939
1.49356
1.5404
1.48354
1.31097
1.02854
0.656696
0.227515
-0.220924
-0.64787
-1.0155
-1.29232
-1.45882
-1.51022
-1.45931
-1.3327
-1.1618
-0.965117
-0.731634
-0.420753
-0.0693966
0.114651
0.0670518
-0.0479513
-0.0566185
0.195399
0.551789
0.825176
1.02333
1.19064
1.33159
1.42737
1.4508
1.38099
1.20956
0.943084
0.599847
0.207677
-0.20088
-0.590989
-0.930309
-1.1915
-1.35706
-1.42144
-1.39379
-1.29533
-1.15305
-0.98527
-0.787021
-0.513567
-0.157074
0.0949897
0.0863182
-0.0680623
-0.0175175
0.29393
0.636365
0.867645
1.03303
1.1735
1.28818
1.35934
1.36369
1.28459
1.11628
0.865543
0.548676
0.189876
-0.182931
-0.539822
-0.853033
-1.09876
-1.26141
-1.33511
-1.32643
-1.25238
-1.13616
-0.995079
-0.829533
-0.598182
-0.255638
0.0558802
0.106432
-0.0859814
0.0431915
0.398701
0.709884
0.897765
1.03337
1.14899
1.23987
1.28975
1.27858
1.19311
1.0294
0.794188
0.501919
0.173655
-0.166606
-0.493096
-0.781942
-1.01241
-1.17064
-1.25076
-1.2575
-1.20455
-1.11192
-0.995536
-0.859706
-0.671745
-0.360451
-0.00484725
0.124349
-0.0974868
0.126005
0.50375
0.769565
0.915862
1.02495
1.11782
1.18756
1.2194
1.19594
1.10655
0.948596
0.728556
0.459193
0.15887
-0.151753
-0.45042
-0.71657
-0.932101
-1.08477
-1.16886
-1.18779
-1.15271
-1.08104
-0.98726
-0.877868
-0.731477
-0.465552
-0.087691
0.135845
-0.0973777
0.229293
0.602725
0.813792
0.922783
1.00854
1.08084
1.13218
1.14905
1.11617
1.02493
0.873575
0.668239
0.420164
0.145397
-0.13824
-0.411458
-0.65651
-0.857556
-1.00379
-1.0898
-1.11808
-1.09781
-1.04437
-0.971007
-0.884863
-0.775756
-0.564584
-0.191021
0.135718
-0.0797435
0.349149
0.689529
0.842187
0.919675
0.98493
1.03892
1.07461
1.07935
1.03953
0.948125
0.803971
0.612796
0.384487
0.133107
-0.125936
-0.375862
-0.601321
-0.788409
-0.927611
-1.01384
-1.04901
-1.04073
-1.00277
-0.947573
-0.881837
-0.804207
-0.651448
-0.310928
0.118056
-0.0383362
0.479459
0.758916
0.855482
0.907762
0.954918
0.992965
1.01568
1.01082
0.966191
0.875982
0.739418
0.561812
0.351846
0.121887
-0.11472
-0.343313
-0.550587
-0.724296
-0.856069
-0.941168
-0.981107
-0.982285
-0.957133
-0.917744
-0.870013
-0.817557
-0.720897
-0.441295
0.0766125
0.0329714
0.61219
0.807024
0.855307
0.8882
0.919287
0.943855
0.956101
0.943904
0.896256
0.808327
0.679574
0.514912
0.32196
0.111632
-0.104485
-0.313527
-0.503934
-0.664879
-0.788997
-0.87189
-0.914809
-0.923201
-0.908357
-0.882305
-0.850547
-0.817436
-0.769064
-0.574089
0.00526102
0.139681
0.737905
0.831785
0.843903
0.861989
0.878838
0.892454
0.896529
0.878954
0.829787
0.744975
0.624117
0.471758
0.294577
0.102252
-0.0951377
-0.286251
-0.461024
-0.609838
-0.726215
-0.806068
-0.850475
-0.864128
-0.857301
-0.842059
-0.824437
-0.806087
-0.793879
-0.699868
-0.101498
0.286169
0.846445
0.833161
0.823783
0.829933
0.834405
0.839583
0.837516
0.816252
0.766798
0.685737
0.572747
0.432041
0.269473
0.0936656
-0.0865947
-0.261259
-0.421548
-0.558873
-0.667534
-0.743719
-0.788392
-0.805623
-0.804784
-0.797837
-0.792488
-0.786019
-0.795304
-0.808472
-0.248038
0.475239
0.927725
0.813165
0.797376
0.792659
0.78686
0.78599
0.779535
0.756013
0.707267
0.630416
0.525179
0.395481
0.246447
0.0858013
-0.0787813
-0.238347
-0.385225
-0.511701
-0.612761
-0.684824
-0.728778
-0.748161
-0.751559
-0.750514
-0.755326
-0.759664
-0.775352
-0.889814
-0.437161
0.707775
0.972572
0.775666
0.766716
0.750675
0.73711
0.732343
0.722974
0.698394
0.651142
0.578817
0.48115
0.361824
0.225316
0.0785943
-0.0716309
-0.217333
-0.3518
-0.468059
-0.561702
-0.629335
-0.671791
-0.692133
-0.698295
-0.700998
-0.713461
-0.729055
-0.73789
-0.934718
-0.669749
0.982537
0.9735
0.726002
0.733208
0.704466
0.686075
0.679207
0.668149
0.643503
0.59835
0.530746
0.440414
0.330835
0.205917
0.0719864
-0.0650839
-0.198052
-0.321039
-0.427702
-0.514164
-0.577179
-0.617543
-0.63786
-0.645562
-0.650211
-0.66738
-0.6956
-0.688258
-0.9357
-0.944561
1.29612
0.925367
0.67044
0.697499
0.654593
0.634653
0.627047
0.615315
0.591402
0.548799
0.486012
0.402741
0.302306
0.188104
0.065926
-0.0590868
-0.180356
-0.292732
-0.390398
-0.469957
-0.528265
-0.566099
-0.585599
-0.593827
-0.599056
-0.617645
-0.659945
-0.632721
-0.887616
-1.25819
1.64309
0.825818
0.615547
0.659472
0.601787
0.583674
0.576228
0.564669
0.542119
0.502383
0.444433
0.367918
0.276041
0.171744
0.0603662
-0.0535919
-0.164111
-0.266684
-0.355935
-0.428895
-0.482489
-0.517487
-0.535552
-0.543461
-0.548365
-0.564991
-0.621978
-0.57785
-0.78811
-1.6052
2.01625
0.675487
0.567552
0.618355
0.547003
0.533849
0.527027
0.516363
0.495648
0.458988
0.405828
0.335745
0.251866
0.156717
0.055265
-0.0485558
-0.149196
-0.242718
-0.324112
-0.390801
-0.439736
-0.471704
-0.487871
-0.494743
-0.498856
-0.510376
-0.580928
-0.529873
-0.637818
-1.97841
2.40711
0.47794
0.531762
0.572923
0.491442
0.485726
0.479652
0.470505
0.451958
0.418491
0.370025
0.306039
0.22962