/*--------------------------------*- C++ -*----------------------------------*\
| =========                 |                                                 |
| \\      /  F ield         | OpenFOAM: The Open Source CFD Toolbox           |
|  \\    /   O peration     | Version:  2.4.0                                 |
|   \\  /    A nd           | Web:      www.OpenFOAM.org                      |
|    \\/     M anipulation  |                                                 |
\*---------------------------------------------------------------------------*/
FoamFile
{
    version     2.0;
    format      ascii;
    class       surfaceScalarField;
    location    "0.02";
    object      phi;
}
// * * * * * * * * * * * * * * * * * * * * * * * * * * * * * * * * * * * * * //

dimensions      [0 3 -1 0 0 0 0];

internalField   nonuniform List<scalar> 
14230
(
4.41111e-16
-1.90826e-16
-1.50537e-15
1.94649e-15
-1.11687e-14
9.66337e-15
-2.26994e-14
1.15308e-14
-2.22011e-14
-4.98176e-16
8.25057e-15
-3.04514e-14
8.89572e-14
-8.07063e-14
2.39313e-13
-1.50355e-13
4.70429e-13
-2.31115e-13
7.75999e-13
-3.0557e-13
1.12834e-12
-3.52339e-13
1.48229e-12
-3.53953e-13
1.7853e-12
-3.03004e-13
1.98919e-12
-2.03894e-13
2.06065e-12
-7.14567e-14
1.98788e-12
7.27691e-14
1.78301e-12
2.04864e-13
1.4796e-12
3.03415e-13
1.12581e-12
3.53785e-13
7.74055e-13
3.5176e-13
4.69205e-13
3.04849e-13
2.38706e-13
2.30498e-13
8.87363e-14
1.49969e-13
8.19686e-15
8.05389e-14
-2.22122e-14
3.04086e-14
-2.27043e-14
4.91862e-16
-1.11683e-14
-1.15361e-14
-1.50405e-15
-9.66427e-15
4.40872e-16
-1.94488e-15
1.81206e-16
2.5967e-16
-6.16071e-17
5.36461e-16
-8.42085e-15
1.03057e-14
-2.99728e-14
3.12154e-14
-4.61068e-14
2.76649e-14
-1.43163e-14
-3.22885e-14
1.20321e-13
-1.65088e-13
4.11662e-13
-3.72047e-13
9.02024e-13
-6.40717e-13
1.60506e-12
-9.34154e-13
2.48817e-12
-1.18867e-12
3.46876e-12
-1.33293e-12
4.4276e-12
-1.31279e-12
5.23339e-12
-1.10879e-12
5.76945e-12
-7.39957e-13
5.95632e-12
-2.58329e-13
5.76612e-12
2.62972e-13
5.22753e-12
7.43452e-13
4.42055e-12
1.11039e-12
3.46195e-12
1.31239e-12
2.48268e-12
1.33103e-12
1.60138e-12
1.18615e-12
9.00008e-13
9.31869e-13
4.10803e-13
6.39173e-13
1.20053e-13
3.71288e-13
-1.43795e-14
1.6484e-13
-4.61253e-14
3.22373e-14
-2.99787e-14
-2.76828e-14
-8.42069e-15
-3.12223e-14
-6.29773e-17
-1.03026e-14
-5.45305e-16
6.63527e-16
-2.13571e-15
3.31499e-15
-2.00668e-14
2.82368e-14
-5.29567e-14
6.41053e-14
-5.8061e-14
3.27692e-14
4.16633e-14
-1.32013e-13
3.31196e-13
-4.5462e-13
8.85248e-13
-9.26099e-13
1.7538e-12
-1.50927e-12
2.93725e-12
-2.11761e-12
4.36722e-12
-2.61864e-12
5.90889e-12
-2.8746e-12
7.38401e-12
-2.78791e-12
8.60506e-12
-2.32984e-12
9.40972e-12
-1.54462e-12
9.68898e-12
-5.37593e-13
9.40485e-12
5.47101e-13
8.59642e-12
1.55189e-12
7.37342e-12
2.33339e-12
5.89837e-12
2.78743e-12
4.35841e-12
2.87099e-12
2.93101e-12
2.61355e-12
1.75012e-12
2.11276e-12
8.8351e-13
1.50578e-12
3.30566e-13
9.24231e-13
4.14896e-14
4.53917e-13
-5.81079e-14
1.31835e-13
-5.29713e-14
-3.28195e-14
-2.00677e-14
-6.41259e-14
-2.13694e-15
-2.82333e-14
-3.32255e-15
6.40293e-16
-6.8199e-15
9.91268e-15
-3.69407e-14
5.83577e-14
-7.388e-14
1.01045e-13
-4.20154e-14
9.04715e-16
1.67628e-13
-3.41655e-13
6.60463e-13
-9.47455e-13
1.52093e-12
-1.78657e-12
2.79357e-12
-2.78191e-12
4.45391e-12
-3.77794e-12
6.39353e-12
-4.55826e-12
8.43124e-12
-4.91231e-12
1.0344e-11
-4.70063e-12
1.19061e-11
-3.89199e-12
1.29269e-11
-2.56538e-12
1.32797e-11
-8.9046e-13
1.29209e-11
9.05972e-13
1.18953e-11
2.57742e-12
1.03305e-11
3.8982e-12
8.41758e-12
4.70039e-12
6.38168e-12
4.90688e-12
4.44511e-12
4.55012e-12
2.78806e-12
3.76981e-12
1.5181e-12
2.77575e-12
6.59315e-13
1.78301e-12
1.67268e-13
9.45963e-13
-4.21146e-14
3.41217e-13
-7.39101e-14
-1.02393e-15
-3.69454e-14
-1.01091e-13
-6.82035e-15
-5.83583e-14
-9.91856e-15
-2.24366e-16
-1.51396e-14
2.23029e-14
-5.74784e-14
1.00696e-13
-8.412e-14
1.27686e-13
1.72332e-14
-1.00449e-13
3.80589e-13
-7.05011e-13
1.12182e-12
-1.68868e-12
2.32462e-12
-2.98937e-12
4.01687e-12
-4.47416e-12
6.14148e-12
-5.90255e-12
8.54982e-12
-6.9666e-12
1.10218e-11
-7.38434e-12
1.33025e-11
-6.98123e-12
1.51425e-11
-5.73206e-12
1.63357e-11
-3.75851e-12
1.67466e-11
-1.30144e-12
1.63288e-11
1.32377e-12
1.51302e-11
3.77608e-12
1.32868e-11
5.74155e-12
1.10056e-11
6.98165e-12
8.53527e-12
7.37719e-12
6.13022e-12
6.95516e-12
4.00942e-12
5.89061e-12
2.32051e-12
4.46466e-12
1.11999e-12
2.98353e-12
3.79951e-13
1.686e-12
1.70471e-14
7.04121e-13
-8.41757e-14
1.00199e-13
-5.74908e-14
-1.27775e-13
-1.51401e-14
-1.00709e-13
-2.23078e-14
-2.75089e-15
-2.7678e-14
4.21135e-14
-7.81962e-14
1.51215e-13
-7.28902e-14
1.2238e-13
1.35648e-13
-3.08987e-13
6.96769e-13
-1.26613e-12
1.72715e-12
-2.71906e-12
3.30024e-12
-4.56246e-12
5.41825e-12
-6.59218e-12
7.98736e-12
-8.47166e-12
1.08214e-11
-9.80064e-12
1.36697e-11
-1.02327e-11
1.62565e-11
-9.56796e-12
1.83204e-11
-7.79601e-12
1.96493e-11
-5.0874e-12
2.01056e-11
-1.7577e-12
1.9642e-11
1.78737e-12
1.8307e-11
5.11104e-12
1.62392e-11
7.80932e-12
1.36514e-11
9.56949e-12
1.08045e-11
1.02241e-11
7.9738e-12
9.78588e-12
5.40883e-12
8.45558e-12
3.2947e-12
6.57879e-12
1.72448e-12
4.55375e-12
6.95746e-13
2.71473e-12
1.35327e-13
1.26454e-12
-7.29869e-14
3.08513e-13
-7.82218e-14
-1.2254e-13
-2.768e-14
-1.51251e-13
-4.21198e-14
-7.86811e-15
-4.41132e-14
6.98365e-14
-9.32141e-14
2.00316e-13
-2.70913e-14
5.62574e-14
3.29871e-13
-6.65949e-13
1.13143e-12
-2.06769e-12
2.48639e-12
-4.07402e-12
4.44963e-12
-6.52571e-12
6.99119e-12
-9.13373e-12
9.97945e-12
-1.14599e-11
1.31954e-11
-1.30166e-11
1.6366e-11
-1.34033e-11
1.92043e-11
-1.24062e-11
2.14459e-11
-1.00376e-11
2.28798e-11
-6.52131e-12
2.33707e-11
-2.24854e-12
2.28722e-11
2.28585e-12
2.14318e-11
6.55139e-12
1.9186e-11
1.00552e-11
1.63461e-11
1.24093e-11
1.31765e-11
1.33937e-11
9.9638e-12
1.29986e-11
6.97982e-12
1.14396e-11
4.44256e-12
9.11605e-12
2.48273e-12
6.51358e-12
1.1299e-12
4.06756e-12
3.29354e-13
2.06509e-12
-2.72513e-14
6.65118e-13
-9.32604e-14
-5.65313e-14
-4.41197e-14
-2.00391e-13
-6.98484e-14
-1.63912e-14
-6.26906e-14
1.03835e-13
-9.39322e-14
2.31557e-13
6.84769e-14
-1.06152e-13
6.16875e-13
-1.21435e-12
1.6987e-12
-3.14951e-12
3.40757e-12
-5.78288e-12
5.77284e-12
-8.89098e-12
8.72835e-12
-1.20892e-11
1.21062e-11
-1.48378e-11
1.56603e-11
-1.65707e-11
1.91034e-11
-1.68464e-11
2.2145e-11
-1.54478e-11
2.45247e-11
-1.24173e-11
2.60379e-11
-8.03445e-12
2.65544e-11
-2.76509e-12
2.60301e-11
2.81015e-12
2.45103e-11
8.07116e-12
2.2126e-11
1.24395e-11
1.90824e-11
1.5453e-11
1.56399e-11
1.68361e-11
1.20887e-11
1.65499e-11
8.71512e-12
1.48132e-11
5.76419e-12
1.2067e-11
3.4028e-12
8.87497e-12
1.69655e-12
5.77381e-12
6.16089e-13
3.14555e-12
6.8223e-14
1.21298e-12
-9.401e-14
1.05702e-13
-6.27056e-14
-2.31696e-13
-1.03859e-13
-2.8695e-14
-7.96631e-14
1.39218e-13
-6.88652e-14
2.20759e-13
2.30684e-13
-4.05701e-13
1.01345e-12
-1.99711e-12
2.4113e-12
-4.54737e-12
4.49678e-12
-7.86836e-12
7.26829e-12
-1.16625e-11
1.06219e-11
-1.54428e-11
1.43568e-11
-1.85727e-11
1.82063e-11
-2.04202e-11
2.18759e-11
-2.05161e-11
2.50785e-11
-1.86504e-11
2.75625e-11
-1.49013e-11
2.91332e-11
-9.60514e-12
2.9668e-11
-3.29994e-12
2.91255e-11
3.3527e-12
2.75481e-11
9.64856e-12
2.50593e-11
1.49283e-11
2.18542e-11
1.8658e-11
1.81847e-11
2.05056e-11
1.43377e-11
2.03969e-11
1.06069e-11
1.8544e-11
7.25803e-12
1.54159e-11
4.49079e-12
1.16422e-11
2.40841e-12
7.85618e-12
1.01231e-12
4.54166e-12
2.30297e-13
1.995e-12
-6.89889e-14
4.04988e-13
-7.96921e-14
-2.20993e-13
-1.39265e-13
-4.42861e-14
-8.87651e-14
1.667e-13
-3.6665e-15
1.35661e-13
4.77542e-13
-8.86909e-13
1.53573e-12
-3.0553e-12
3.28034e-12
-6.29198e-12
5.75824e-12
-1.03463e-11
8.93304e-12
-1.48373e-11
1.26635e-11
-1.91733e-11
1.6721e-11
-2.26301e-11
2.08245e-11
-2.45238e-11
2.46789e-11
-2.43705e-11
2.80052e-11
-2.19767e-11
3.05645e-11
-1.74606e-11
3.21745e-11
-1.12151e-11
3.27215e-11
-3.84691e-12
3.2167e-11
3.9072e-12
3.05503e-11
1.12652e-11
2.7986e-11
1.74926e-11
2.46569e-11
2.19871e-11
2.08022e-11
2.43603e-11
1.67006e-11
2.44985e-11
1.2647e-11
2.25976e-11
8.92121e-12
1.91416e-11
5.75097e-12
1.48125e-11
3.2766e-12
1.03306e-11
1.53415e-12
6.28411e-12
4.76974e-13
3.05217e-12
-3.85569e-15
8.85817e-13
-8.88159e-14
-1.36032e-13
-1.66783e-13
-6.12976e-14
-8.07788e-14
1.71557e-13
1.18648e-13
-6.37658e-14
8.27624e-13
-1.59589e-12
2.19887e-12
-4.42655e-12
4.31523e-12
-8.40834e-12
7.19442e-12
-1.32254e-11
1.0763e-11
-1.84059e-11
1.48451e-11
-2.32554e-11
1.91895e-11
-2.69745e-11
2.35077e-11
-2.88419e-11
2.75086e-11
-2.83715e-11
3.09259e-11
-2.5394e-11
3.35357e-11
-2.00703e-11
3.51696e-11
-1.28491e-11
3.57235e-11
-4.40084e-12
3.51624e-11
4.46837e-12
3.35219e-11
1.29056e-11
3.09071e-11
2.01075e-11
2.74867e-11
2.54074e-11
2.34849e-11
2.83621e-11
1.91683e-11
2.88151e-11
1.48272e-11
2.69386e-11
1.07497e-11
2.32192e-11
7.18582e-12
1.83764e-11
4.31054e-12
1.32058e-11
2.19676e-12
8.39789e-12
8.26819e-13
4.42211e-12
1.18368e-13
1.59427e-12
-8.08611e-14
6.31968e-14
-1.71696e-13
-7.59487e-14
-4.32477e-14
1.32835e-13
3.17282e-13
-4.24295e-13
1.29947e-12
-2.57808e-12
3.0167e-12
-6.14377e-12
5.52362e-12
-1.09153e-11
8.80613e-12
-1.65079e-11
1.27533e-11
-2.2353e-11
1.71584e-11
-2.76605e-11
2.1754e-11
-3.15701e-11
2.62492e-11
-3.33371e-11
3.03622e-11
-3.24845e-11
3.38417e-11
-2.88734e-11
3.64807e-11
-2.27094e-11
3.81257e-11
-1.4494e-11
3.86822e-11
-4.95741e-12
3.81188e-11
5.03181e-12
3.64676e-11
1.45568e-11
3.38235e-11
2.27516e-11
3.03407e-11
2.88903e-11
2.62263e-11
3.24765e-11
2.1732e-11
3.33094e-11
1.71394e-11
3.15312e-11
1.27386e-11
2.762e-11
8.7962e-12
2.23187e-11
5.51791e-12
1.64841e-11
3.01395e-12
1.09018e-11
1.29837e-12
6.1377e-12
3.16881e-13
2.57575e-12
-4.3374e-14
4.23452e-13
-1.33054e-13
-8.20159e-14
3.96134e-14
2.29222e-14
6.13076e-13
-9.97757e-13
1.91104e-12
-3.87604e-12
4.00149e-12
-8.23423e-12
6.91139e-12
-1.38252e-11
1.05927e-11
-2.01893e-11
1.48981e-11
-2.66584e-11
1.95954e-11
-3.23579e-11
2.44065e-11
-3.63812e-11
2.90437e-11
-3.79743e-11
3.32376e-11
-3.66784e-11
3.67541e-11
-3.239e-11
3.94041e-11
-2.53594e-11
4.10491e-11
-1.6139e-11
4.16047e-11
-5.51299e-12
4.10426e-11
5.59384e-12
3.93917e-11
1.62078e-11
3.67367e-11
2.54066e-11
3.32166e-11
3.24104e-11
2.9021e-11
3.66721e-11
2.43843e-11
3.79462e-11
1.95756e-11
3.63399e-11
1.48822e-11
3.23134e-11
1.05815e-11
2.66195e-11
6.9046e-12
2.0161e-11
3.99804e-12
1.38084e-11
1.90956e-12
8.22618e-12
6.12518e-13
3.8728e-12
3.94277e-14
9.96542e-13
-2.32542e-14
-7.03722e-14
1.86782e-13
-1.92402e-13
1.02779e-12
-1.83877e-12
2.67915e-12
-5.52739e-12
5.16388e-12
-1.0719e-11
8.48269e-12
-1.7144e-11
1.25522e-11
-2.42588e-11
1.71915e-11
-3.12977e-11
2.21485e-11
-3.73149e-11
2.71403e-11
-4.1373e-11
3.18865e-11
-4.27204e-11
3.61331e-11
-4.0925e-11
3.96645e-11
-3.59214e-11
4.23099e-11
-2.80048e-11
4.39457e-11
-1.77747e-11
4.44972e-11
-6.06456e-12
4.39397e-11
6.15137e-12
4.22983e-11
1.78491e-11
3.96481e-11
2.80569e-11
3.6113e-11
3.59455e-11
3.18643e-11
4.09207e-11
2.7118e-11
4.26925e-11
2.2128e-11
4.13299e-11
1.71746e-11
3.72669e-11
1.25398e-11
3.12542e-11
8.4748e-12
2.4226e-11
5.15965e-12
1.71235e-11
2.67724e-12
1.07086e-11
1.02704e-12
5.523e-12
1.86518e-13
1.83706e-12
1.91915e-13
-2.86504e-14
4.20054e-13
-5.53385e-13
1.58335e-12
-3.00207e-12
3.61915e-12
-7.5632e-12
6.51273e-12
-1.36125e-11
1.024e-11
-2.08712e-11
1.46815e-11
-2.87003e-11
1.96269e-11
-3.62432e-11
2.48103e-11
-4.24983e-11
2.9949e-11
-4.65117e-11
3.47737e-11
-4.75451e-11
3.90476e-11
-4.51989e-11
4.25746e-11
-3.94484e-11
4.52019e-11
-3.06321e-11
4.68206e-11
-1.93934e-11
4.73656e-11
-6.60954e-12
4.68152e-11
6.70181e-12
4.51912e-11
1.94731e-11
4.25593e-11
3.06888e-11
3.90286e-11
3.94762e-11
3.47523e-11
4.5197e-11
2.9927e-11
4.75178e-11
2.47895e-11
4.64673e-11
1.96091e-11
4.24472e-11
1.4668e-11
3.61954e-11
1.0231e-11
2.86629e-11
6.50765e-12
2.08469e-11
3.61674e-12
1.35995e-11
1.58235e-12
7.55739e-12
4.19691e-13
2.99972e-12
5.52689e-13
5.89165e-14
7.63444e-13
-1.10518e-12
2.30101e-12
-4.53963e-12
4.74457e-12
-1.00068e-11
8.05509e-12
-1.69231e-11
1.21842e-11
-2.50004e-11
1.69765e-11
-3.34926e-11
2.21978e-11
-4.14644e-11
2.7574e-11
-4.78745e-11
3.28272e-11
-5.17649e-11
3.77021e-11
-5.24199e-11
4.19805e-11
-4.94774e-11
4.5486e-11
-4.29538e-11
4.80837e-11
-3.32298e-11
4.96787e-11
-2.09885e-11
5.0215e-11
-7.1458e-12
4.96738e-11
7.24297e-12
4.8074e-11
2.10728e-11
4.54719e-11
3.32909e-11
4.19627e-11
4.29854e-11
3.76816e-11
4.94781e-11
3.28056e-11
5.23938e-11
2.75531e-11
5.17199e-11
2.21794e-11
4.7821e-11
1.6962e-11
4.14128e-11
1.21742e-11
3.34508e-11
8.04914e-12
2.4972e-11
4.74159e-12
1.69071e-11
2.29972e-12
9.99926e-12
7.62959e-13
4.53649e-12
1.1042e-12
2.11445e-13
1.2424e-12
-1.89619e-12
3.20066e-12
-6.49789e-12
6.06694e-12
-1.2873e-11
9.79628e-12
-2.06524e-11
1.43148e-11
-2.95189e-11
1.94324e-11
-3.86102e-11
2.48974e-11
-4.69294e-11
3.0433e-11
-5.34101e-11
3.57699e-11
-5.71018e-11
4.06689e-11
-5.73189e-11
4.49315e-11
-5.37399e-11
4.84005e-11
-4.64229e-11
5.09586e-11
-3.57879e-11
5.25243e-11
-2.25542e-11
5.305e-11
-7.6715e-12
5.25199e-11
7.77302e-12
5.09499e-11
2.26428e-11
4.83877e-11
3.58531e-11
4.4915e-11
4.64581e-11
4.06496e-11
5.37435e-11
3.57491e-11
5.72943e-11
3.04123e-11
5.70566e-11
2.48786e-11
5.33546e-11
1.94171e-11
4.68743e-11
1.43037e-11
3.85641e-11
9.78945e-12
2.94862e-11
6.06335e-12
2.06331e-11
3.19904e-12
1.28636e-11
1.24177e-12
6.49375e-12
1.89485e-12
4.51119e-13
1.8829e-12
-2.97607e-12
4.3002e-12
-8.91519e-12
7.59576e-12
-1.61686e-11
1.17399e-11
-2.47965e-11
1.66297e-11
-3.44087e-11
2.20438e-11
-4.40243e-11
2.77193e-11
-5.26049e-11
3.33815e-11
-5.90723e-11
3.87728e-11
-6.24931e-11
4.36719e-11
-6.22181e-11
4.79002e-11
-5.79682e-11
5.13197e-11
-4.98424e-11
5.38296e-11
-3.82977e-11
5.53611e-11
-2.40857e-11
5.58748e-11
-8.18511e-12
5.53574e-11
8.29042e-12
5.3822e-11
2.41782e-11
5.13083e-11
3.83668e-11
4.78852e-11
4.98812e-11
4.3654e-11
5.79747e-11
3.87529e-11
6.21953e-11
3.33612e-11
6.24484e-11
2.77004e-11
5.90155e-11
2.20278e-11
5.25469e-11
1.66178e-11
4.39742e-11
1.17322e-11
3.43719e-11
7.59152e-12
2.47738e-11
4.2982e-12
1.61569e-11
1.88209e-12
8.90987e-12
2.97428e-12
8.02668e-13
2.71045e-12
-4.39344e-12
5.61507e-12
-1.18198e-11
9.33846e-12
-1.9892e-11
1.38879e-11
-2.93459e-11
1.91259e-11
-3.96468e-11
2.48047e-11
-4.97031e-11
3.0657e-11
-5.84572e-11
3.64138e-11
-6.48291e-11
4.18321e-11
-6.79114e-11
4.67094e-11
-6.70954e-11
5.08869e-11
-6.21458e-11
5.42454e-11
-5.32008e-11
5.66996e-11
-4.0752e-11
5.81929e-11
-2.5579e-11
5.86931e-11
-8.68533e-12
5.81896e-11
8.79386e-12
5.6693e-11
2.56749e-11
5.42353e-11
4.08245e-11
5.08735e-11
5.32431e-11
4.66929e-11
6.21554e-11
4.18133e-11
6.70748e-11
3.63942e-11
6.78675e-11
3.06381e-11
6.47715e-11
2.47883e-11
5.83967e-11
1.91132e-11
4.96492e-11
1.38793e-11
3.96058e-11
9.33354e-12
2.93196e-11
5.61265e-12
1.98778e-11
2.70944e-12
1.18131e-11
4.39106e-12
1.29265e-12
3.74915e-12
-6.19349e-12
7.15793e-12
-1.52286e-11
1.13005e-11
-2.40346e-11
1.62405e-11
-3.42859e-11
2.17993e-11
-4.52055e-11
2.7709e-11
-5.56129e-11
3.37043e-11
-6.44524e-11
3.95249e-11
-7.06497e-11
4.49443e-11
-7.33309e-11
4.97797e-11
-7.19307e-11
5.38918e-11
-6.62578e-11
5.71789e-11
-5.6488e-11
5.9571e-11
-4.31441e-11
6.10226e-11
-2.70305e-11
6.15083e-11
-9.17104e-12
6.10199e-11
9.28224e-12
5.95655e-11
2.71292e-11
5.71703e-11
4.32197e-11
5.38799e-11
5.65335e-11
4.97647e-11
6.62705e-11
4.49269e-11
7.19126e-11
3.95061e-11
7.32883e-11
3.36857e-11
7.05919e-11
2.76924e-11
6.439e-11
2.17859e-11
5.55557e-11
1.62312e-11
4.51606e-11
1.12949e-11
3.42558e-11
7.15507e-12
2.40176e-11
3.74792e-12
1.52202e-11
6.19039e-12
1.94859e-12
5.02084e-12
-8.41575e-12
8.93859e-12
-1.91463e-11
1.34856e-11
-2.85816e-11
1.87967e-11
-3.9597e-11
2.46446e-11
-5.10535e-11
3.07505e-11
-6.17187e-11
3.68552e-11
-7.05572e-11
4.27101e-11
-7.65046e-11
4.81067e-11
-7.87275e-11
5.28817e-11
-7.67057e-11
5.6915e-11
-7.02912e-11
6.0122e-11
-5.9695e-11
6.24464e-11
-4.54685e-11
6.38532e-11
-2.84373e-11
6.43234e-11
-9.6413e-12
6.38511e-11
9.75462e-12
6.24419e-11
2.85384e-11
6.01148e-11
4.55468e-11
5.69048e-11
5.97434e-11
5.28684e-11
7.03069e-11
4.80908e-11
7.66903e-11
4.26924e-11
7.86867e-11
3.68372e-11
7.64471e-11
3.07338e-11
7.04934e-11
2.46308e-11
6.16587e-11
1.87867e-11
5.10048e-11
1.34794e-11
3.95631e-11
8.93528e-12
2.85617e-11
5.01937e-12
1.91361e-11
8.41178e-12
2.79799e-12
6.5444e-12
-1.10921e-11
1.0964e-11
-2.3566e-11
1.58957e-11
-3.35133e-11
2.15539e-11
-4.52551e-11
2.76563e-11
-5.71559e-11
3.39226e-11
-6.79851e-11
4.01042e-11
-7.67387e-11
4.59652e-11
-8.23656e-11
5.13166e-11
-8.40789e-11
5.60145e-11
-8.14036e-11
5.99571e-11
-7.42338e-11
6.30759e-11
-6.28138e-11
6.53278e-11
-4.77204e-11
6.66872e-11
-2.97967e-11
6.71412e-11
-1.00953e-11
6.66856e-11
1.02102e-11
6.53244e-11
2.98996e-11
6.30702e-11
4.7801e-11
5.99486e-11
6.2865e-11
5.60029e-11
7.42526e-11
5.13022e-11
8.1391e-11
4.59488e-11
8.40401e-11
4.00869e-11
8.23089e-11
3.39062e-11
7.66742e-11
2.76422e-11
6.79227e-11
2.15433e-11
5.71037e-11
1.58888e-11
4.52175e-11
1.09603e-11
3.34903e-11
6.54268e-12
2.35537e-11
1.10871e-11
3.86735e-12
8.33525e-12
-1.42454e-11
1.32386e-11
-2.84694e-11
1.85311e-11
-3.88057e-11
2.45082e-11
-5.12323e-11
3.08279e-11
-6.34756e-11
3.72193e-11
-7.43764e-11
4.34458e-11
-8.29652e-11
4.92863e-11
-8.82062e-11
5.45718e-11
-8.93643e-11
5.91772e-11
-8.6009e-11
6.30185e-11
-7.80752e-11
6.60422e-11
-6.58374e-11
6.82173e-11
-4.98954e-11
6.95271e-11
-3.11065e-11
6.99641e-11
-1.05323e-11
6.9526e-11
1.06483e-11
6.82148e-11
3.12109e-11
6.60378e-11
4.99781e-11
6.30116e-11
6.58912e-11
5.91674e-11
7.80968e-11
5.4559e-11
8.59993e-11
4.92713e-11
8.93279e-11
4.34295e-11
8.81507e-11
3.72033e-11
8.29004e-11
3.08138e-11
7.43122e-11
2.44972e-11
6.34203e-11
1.85237e-11
5.1191e-11
1.32344e-11
3.87795e-11
8.33327e-12
2.84549e-11
1.42391e-11
5.18126e-12
1.04051e-11
-1.78881e-11
1.57643e-11
-3.38286e-11
2.13908e-11
-4.44322e-11
2.76548e-11
-5.74963e-11
3.4153e-11
-6.99738e-11
4.06343e-11
-8.08578e-11
4.6875e-11
-8.92059e-11
5.267e-11
-9.40011e-11
5.78703e-11
-9.45646e-11
6.23693e-11
-9.0508e-11
6.60997e-11
-8.18056e-11
6.9022e-11
-6.87597e-11
7.11165e-11
-5.199e-11
7.23748e-11
-3.23648e-11
7.27943e-11
-1.09518e-11
7.23742e-11
1.10684e-11
7.1115e-11
3.24701e-11
6.90189e-11
5.20741e-11
6.60944e-11
6.88157e-11
6.23612e-11
8.183e-11
5.78593e-11
9.05012e-11
5.26564e-11
9.45307e-11
4.68598e-11
9.39473e-11
4.06189e-11
8.91413e-11
3.41389e-11
8.07922e-11
2.76434e-11
6.99158e-11
2.13828e-11
5.74516e-11
1.57597e-11
4.44027e-11
1.04028e-11
3.38117e-11
1.78804e-11
6.7616e-12
1.27618e-11
-2.20221e-11
1.8541e-11
-3.96078e-11
2.44723e-11
-5.03634e-11
3.09876e-11
-6.40116e-11
3.76247e-11
-7.66109e-11
4.41617e-11
-8.73948e-11
5.03871e-11
-9.54313e-11
5.6113e-11
-9.9727e-11
6.12104e-11
-9.9662e-11
6.55902e-11
-9.48879e-11
6.92011e-11
-8.54164e-11
7.20165e-11
-7.15751e-11
7.40272e-11
-5.40007e-11
7.52323e-11
-3.35699e-11
7.56337e-11
-1.13532e-11
7.52322e-11
1.14699e-11
7.40266e-11
3.36757e-11
7.20147e-11
5.4086e-11
6.91974e-11
7.16331e-11
6.55839e-11
8.54434e-11
6.12012e-11
9.4884e-11
5.6101e-11
9.96308e-11
5.03732e-11
9.96751e-11
4.41471e-11
9.53674e-11
3.76109e-11
8.73284e-11
3.09761e-11
7.65507e-11
2.4464e-11
6.39637e-11
1.8536e-11
5.03307e-11
1.27594e-11
3.95883e-11
2.20128e-11
8.62692e-12
1.54099e-11
-2.66391e-11
2.1567e-11
-4.57649e-11
2.77719e-11
-5.65684e-11
3.44999e-11
-7.07395e-11
4.12361e-11
-8.33472e-11
4.77958e-11
-9.39545e-11
5.39778e-11
-1.01613e-10
5.96125e-11
-1.05362e-10
6.45906e-11
-1.0464e-10
6.88397e-11
-9.9137e-11
7.23232e-11
-8.88999e-11
7.50268e-11
-7.42787e-11
7.69508e-11
-5.59248e-11
7.81012e-11
-3.47203e-11
7.84841e-11
-1.17361e-11
7.81016e-11
1.18524e-11
7.69511e-11
3.48261e-11
7.50263e-11
5.60109e-11
7.2321e-11
7.43383e-11
6.88351e-11
8.89293e-11
6.45832e-11
9.91359e-11
5.96022e-11
1.04612e-10
5.39653e-11
1.05312e-10
4.77822e-11
1.01551e-10
4.12228e-11
9.38877e-11
3.44884e-11
8.32851e-11
2.77633e-11
7.06887e-11
2.15616e-11
5.65324e-11
1.54072e-11
4.57427e-11
2.66279e-11
1.0792e-11
1.83502e-11
-3.17205e-11
2.48389e-11
-5.22536e-11
3.12848e-11
-6.30143e-11
3.81843e-11
-7.76389e-11
4.49806e-11
-9.01436e-11
5.15311e-11
-1.00505e-10
5.76428e-11
-1.07725e-10
6.31658e-11
-1.10885e-10
6.80097e-11
-1.09484e-10
7.21174e-11
-1.03245e-10
7.54665e-11
-9.2249e-11
7.80538e-11
-7.68661e-11
7.98887e-11
-5.77596e-11
8.09831e-11
-3.58147e-11
8.1347e-11
-1.21e-11
8.09839e-11
1.22156e-11
7.98898e-11
3.59202e-11
7.80545e-11
5.78461e-11
7.54658e-11
7.6927e-11
7.21146e-11
9.22806e-11
6.80041e-11
1.03246e-10
6.31573e-11
1.09459e-10
5.76318e-11
1.10838e-10
5.15186e-11
1.07664e-10
4.49679e-11
1.00438e-10
3.81729e-11
9.00801e-11
3.12761e-11
7.75856e-11
2.48332e-11
6.29753e-11
1.83473e-11
5.22287e-11
3.17074e-11
1.32678e-11
2.15809e-11
-3.72391e-11
2.83523e-11
-5.9025e-11
3.5005e-11
-6.9667e-11
4.2033e-11
-8.46669e-11
4.88516e-11
-9.69621e-11
5.53624e-11
-1.07016e-10
6.13784e-11
-1.13741e-10
6.67708e-11
-1.16277e-10
7.14664e-11
-1.1418e-10
7.54231e-11
-1.07201e-10
7.86314e-11
-9.54574e-11
8.10986e-11
-7.93333e-11
8.28419e-11
-5.9503e-11
8.38792e-11
-3.68521e-11
8.42239e-11
-1.24446e-11
8.38804e-11
1.25591e-11
8.28438e-11
3.69569e-11
8.11004e-11
5.95895e-11
7.86322e-11
7.93952e-11
7.54219e-11
9.54909e-11
7.14625e-11
1.07206e-10
6.6764e-11
1.14157e-10
6.1369e-11
1.16233e-10
5.53511e-11
1.13682e-10
4.88397e-11
1.0695e-10
4.2022e-11
9.68978e-11
3.49962e-11
8.46114e-11
2.83465e-11
6.96251e-11
2.15778e-11
5.89973e-11
3.72238e-11
1.60614e-11
2.50978e-11
-4.31601e-11
3.21018e-11
-6.60291e-11
3.89256e-11
-7.64908e-11
4.60381e-11
-9.17795e-11
5.28427e-11
-1.03767e-10
5.92847e-11
-1.13458e-10
6.51812e-11
-1.19637e-10
7.04252e-11
-1.21521e-10
7.49597e-11
-1.18714e-10
7.87566e-11
-1.10998e-10
8.18184e-11
-9.85192e-11
8.41618e-11
-8.16767e-11
8.58116e-11
-6.11528e-11
8.67908e-11
-3.78313e-11
8.71159e-11
-1.27697e-11
8.67923e-11
1.28826e-11
8.58142e-11
3.7935e-11
8.41646e-11
6.12391e-11
8.18205e-11
8.17393e-11
7.8757e-11
9.85544e-11
7.49576e-11
1.11005e-10
7.04202e-11
1.18694e-10
6.51734e-11
1.21479e-10
5.92747e-11
1.1958e-10
5.28318e-11
1.13393e-10
4.60276e-11
1.03702e-10
3.89169e-11
9.17221e-11
3.20958e-11
7.64461e-11
2.50946e-11
6.59986e-11
4.31424e-11
1.9176e-11
2.88945e-11
-4.94421e-11
3.6081e-11
-7.32155e-11
4.30387e-11
-8.34486e-11
5.01916e-11
-9.89323e-11
5.69479e-11
-1.10523e-10
6.32933e-11
-1.19803e-10
6.90477e-11
-1.25392e-10
7.41271e-11
-1.266e-10
7.84887e-11
-1.23076e-10
8.21177e-11
-1.14627e-10
8.50277e-11
-1.01429e-10
8.72442e-11
-8.38932e-11
8.87987e-11
-6.27073e-11
8.97189e-11
-3.87515e-11
9.00241e-11
-1.30748e-11
8.97207e-11
1.3186e-11
8.88019e-11
3.88538e-11
8.7248e-11
6.2793e-11
8.50311e-11
8.39562e-11
8.21196e-11
1.01466e-10
7.84884e-11
1.14636e-10
7.41239e-11
1.23059e-10
6.90416e-11
1.26562e-10
6.32848e-11
1.25337e-10
5.6938e-11
1.19739e-10
5.01817e-11
1.10458e-10
4.30303e-11
9.88735e-11
3.6075e-11
8.34014e-11
2.88913e-11
7.31824e-11
4.9422e-11
2.26116e-11
3.29633e-11
-5.60394e-11
4.02828e-11
-8.0535e-11
4.73361e-11
-9.0502e-11
5.44855e-11
-1.06082e-10
6.11614e-11
-1.17199e-10
6.73837e-11
-1.26026e-10
7.29752e-11
-1.30983e-10
7.78748e-11
-1.315e-10
8.20526e-11
-1.27253e-10
8.55063e-11
-1.18081e-10
8.82598e-11
-1.04183e-10
9.03464e-11
-8.59799e-11
9.18039e-11
-6.41648e-11
9.26643e-11
-3.96119e-11
9.29494e-11
-1.33599e-11
9.26665e-11
1.34689e-11
9.18078e-11
3.97125e-11
9.03512e-11
6.42496e-11
8.82644e-11
8.6043e-11
8.55097e-11
1.0422e-10
8.20539e-11
1.18092e-10
7.78733e-11
1.2724e-10
7.29708e-11
1.31464e-10
6.73768e-11
1.30931e-10
6.11527e-11
1.25964e-10
5.44765e-11
1.17134e-10
4.73281e-11
1.06022e-10
4.02769e-11
9.04526e-11
3.29601e-11
8.04992e-11
5.60167e-11
2.63654e-11
3.72953e-11
-6.29025e-11
4.46994e-11
-8.79391e-11
5.18089e-11
-9.76114e-11
5.89124e-11
-1.13185e-10
6.54778e-11
-1.23764e-10
7.15519e-11
-1.321e-10
7.69608e-11
-1.36392e-10
8.16667e-11
-1.36206e-10
8.56507e-11
-1.31237e-10
8.89223e-11
-1.21353e-10
9.15148e-11
-1.06775e-10
9.3469e-11
-8.79341e-11
9.48281e-11
-6.55238e-11
9.56279e-11
-4.04117e-11
9.58926e-11
-1.36246e-11
9.56303e-11
1.37312e-11
9.48325e-11
4.05104e-11
9.34746e-11
6.56074e-11
9.15206e-11
8.79971e-11
8.89271e-11
1.06814e-10
8.56535e-11
1.21366e-10
8.1667e-11
1.31226e-10
7.69581e-11
1.36173e-10
7.15464e-11
1.36343e-10
6.54704e-11
1.32039e-10
5.89043e-11
1.23701e-10
5.18013e-11
1.13125e-10
4.46938e-11
9.75601e-11
3.72921e-11
8.79008e-11
6.28772e-11
3.04317e-11
4.18805e-11
-6.99795e-11
4.93226e-11
-9.53812e-11
5.64479e-11
-1.04737e-10
6.3465e-11
-1.20202e-10
6.98919e-11
-1.30191e-10
7.57937e-11
-1.38001e-10
8.1002e-11
-1.41601e-10
8.55014e-11
-1.40705e-10
8.92821e-11
-1.35018e-10
9.23656e-11
-1.24436e-10
9.47932e-11
-1.09203e-10
9.66124e-11
-8.97534e-11
9.78717e-11
-6.67831e-11
9.86103e-11
-4.11503e-11
9.88545e-11
-1.38688e-11
9.8613e-11
1.39727e-11
9.78766e-11
4.12467e-11
9.66188e-11
6.68652e-11
9.47999e-11
8.98159e-11
9.23717e-11
1.09242e-10
8.92865e-11
1.24451e-10
8.55032e-11
1.35009e-10
8.1001e-11
1.40675e-10
7.57898e-11
1.41554e-10
6.98859e-11
1.37943e-10
6.34579e-11
1.30129e-10
5.6441e-11
1.20142e-10
4.93172e-11
1.04684e-10
4.18774e-11
9.53406e-11
6.99516e-11
3.4803e-11
4.67085e-11
-7.72177e-11
5.41434e-11
-1.02816e-10
6.12441e-11
-1.11837e-10
6.81366e-11
-1.27095e-10
7.43988e-11
-1.36453e-10
8.01055e-11
-1.43708e-10
8.50966e-11
-1.46592e-10
8.93774e-11
-1.44986e-10
9.29464e-11
-1.38587e-10
9.5836e-11
-1.27326e-10
9.80949e-11
-1.11462e-10
9.97771e-11
-9.14356e-11
1.00935e-10
-6.79413e-11
1.01612e-10
-4.18271e-11
1.01836e-10
-1.40922e-11
1.01615e-10
1.41933e-11
1.00941e-10
4.19211e-11
9.97841e-11
6.80217e-11
9.81026e-11
9.14974e-11
9.58432e-11
1.11502e-10
9.29522e-11
1.27342e-10
8.93809e-11
1.38581e-10
8.50972e-11
1.44959e-10
8.01033e-11
1.46548e-10
7.43941e-11
1.43653e-10
6.81306e-11
1.36392e-10
6.12379e-11
1.27035e-10
5.41385e-11
1.11783e-10
4.67056e-11
1.02773e-10
7.71871e-11
3.94701e-11
5.17684e-11
-8.45635e-11
5.91528e-11
-1.102e-10
6.61885e-11
-1.18873e-10
7.29207e-11
-1.33827e-10
7.89937e-11
-1.42526e-10
8.4484e-11
-1.49198e-10
8.92425e-11
-1.5135e-10
9.32936e-11
-1.49037e-10
9.66429e-11
-1.41936e-10
9.93333e-11
-1.30016e-10
1.0142e-10
-1.13549e-10
1.02963e-10
-9.29786e-11
1.04019e-10
-6.89973e-11
1.04634e-10
-4.24415e-11
1.04836e-10
-1.42947e-11
1.04637e-10
1.43927e-11
1.04025e-10
4.25329e-11
1.02971e-10
6.90758e-11
1.01429e-10
9.30396e-11
9.93416e-11
1.13589e-10
9.665e-11
1.30034e-10
9.32985e-11
1.41932e-10
8.92447e-11
1.49013e-10
8.44833e-11
1.51309e-10
7.89905e-11
1.49145e-10
7.29159e-11
1.42467e-10
6.61831e-11
1.33767e-10
5.91483e-11
1.18818e-10
5.17658e-11
1.10156e-10
8.45304e-11
4.44225e-11
5.70491e-11
-9.19642e-11
6.43413e-11
-1.17493e-10
7.12723e-11
-1.25804e-10
7.78116e-11
-1.40366e-10
8.36722e-11
-1.48387e-10
8.89258e-11
-1.54452e-10
9.34377e-11
-1.55862e-10
9.72488e-11
-1.52848e-10
1.00371e-10
-1.45059e-10
1.02857e-10
-1.32502e-10
1.04769e-10
-1.1546e-10
1.06171e-10
-9.43807e-11
1.07124e-10
-6.995e-11
1.07676e-10
-4.29931e-11
1.07857e-10
-1.44761e-11
1.07679e-10
1.45709e-11
1.0713e-10
4.30816e-11
1.06179e-10
7.00265e-11
1.04779e-10
9.44405e-11
1.02867e-10
1.155e-10
1.00379e-10
1.32521e-10
9.72551e-11
1.45056e-10
9.34415e-11
1.52827e-10
8.89267e-11
1.55824e-10
8.36705e-11
1.54402e-10
7.7808e-11
1.48329e-10
7.12678e-11
1.40307e-10
6.43374e-11
1.25748e-10
5.70467e-11
1.17447e-10
9.19286e-11
4.96486e-11
6.25393e-11
-9.93676e-11
6.96996e-11
-1.24653e-10
7.64874e-11
-1.32592e-10
8.28036e-11
-1.46683e-10
8.84301e-11
-1.54013e-10
9.34282e-11
-1.5945e-10
9.76805e-11
-1.60114e-10
1.01242e-10
-1.5641e-10
1.0413e-10
-1.47947e-10
1.06408e-10
-1.3478e-10
1.08142e-10
-1.17194e-10
1.09401e-10
-9.564e-11
1.1025e-10
-7.07986e-11
1.10738e-10
-4.34813e-11
1.10898e-10
-1.46363e-11
1.10741e-10
1.47277e-11
1.10256e-10
4.35668e-11
1.0941e-10
7.08728e-11
1.08152e-10
9.56985e-11
1.06418e-10
1.17234e-10
1.0414e-10
1.348e-10
1.01249e-10
1.47947e-10
9.76856e-11
1.5639e-10
9.34306e-11
1.60079e-10
8.84298e-11
1.59402e-10
8.28012e-11
1.53958e-10
7.64839e-11
1.46625e-10
6.96962e-11
1.32536e-10
6.25373e-11
1.24606e-10
9.93297e-11
5.51362e-11
6.82277e-11
-1.06723e-10
7.52181e-11
-1.31643e-10
8.18259e-11
-1.392e-10
8.78916e-11
-1.52748e-10
9.32634e-11
-1.59385e-10
9.79883e-11
-1.64175e-10
1.01969e-10
-1.64095e-10
1.05272e-10
-1.59712e-10
1.0792e-10
-1.50596e-10
1.09985e-10
-1.36846e-10
1.11538e-10
-1.18747e-10
1.12653e-10
-9.67549e-11
1.13397e-10
-7.1542e-11
1.13821e-10
-4.39056e-11
1.1396e-10
-1.47751e-11
1.13824e-10
1.48631e-11
1.13403e-10
4.3988e-11
1.12662e-10
7.16137e-11
1.11549e-10
9.68119e-11
1.09996e-10
1.18786e-10
1.07931e-10
1.36866e-10
1.05281e-10
1.50597e-10
1.01976e-10
1.59695e-10
9.79922e-11
1.64063e-10
9.32645e-11
1.6413e-10
8.78906e-11
1.59332e-10
8.18234e-11
1.52692e-10
7.52155e-11
1.39144e-10
6.8226e-11
1.31595e-10
1.06683e-10
6.08726e-11
7.41032e-11
-1.13982e-10
8.08878e-11
-1.38428e-10
8.72805e-11
-1.45592e-10
9.30709e-11
-1.58539e-10
9.81683e-11
-1.64483e-10
1.02604e-10
-1.6861e-10
1.06302e-10
-1.67794e-10
1.09337e-10
-1.62748e-10
1.1174e-10
-1.52998e-10
1.13589e-10
-1.38694e-10
1.14958e-10
-1.20117e-10
1.15928e-10
-9.7724e-11
1.16565e-10
-7.21793e-11
1.16925e-10
-4.42657e-11
1.17042e-10
-1.48924e-11
1.16929e-10
1.49768e-11
1.16572e-10
4.43449e-11
1.15937e-10
7.22486e-11
1.14969e-10
9.77793e-11
1.136e-10
1.20155e-10
1.11751e-10
1.38715e-10
1.09347e-10
1.53001e-10
1.0631e-10
1.62733e-10
1.02609e-10
1.67763e-10
9.81708e-11
1.68568e-10
9.30711e-11
1.64432e-10
8.72791e-11
1.58484e-10
8.08859e-11
1.45537e-10
7.4102e-11
1.38379e-10
1.1394e-10
6.68449e-11
8.01551e-11
-1.21098e-10
8.66999e-11
-1.44973e-10
9.28447e-11
-1.51737e-10
9.83369e-11
-1.64031e-10
1.03141e-10
-1.69287e-10
1.07272e-10
-1.72741e-10
1.10678e-10
-1.71199e-10
1.13438e-10
-1.65508e-10
1.1559e-10
-1.5515e-10
1.17218e-10
-1.40323e-10
1.18402e-10
-1.21301e-10
1.19224e-10
-9.85457e-11
1.19754e-10
-7.27099e-11
1.2005e-10
-4.45611e-11
1.20146e-10
-1.49881e-11
1.20053e-10
1.50689e-11
1.19761e-10
4.4637e-11
1.19233e-10
7.27764e-11
1.18414e-10
9.85992e-11
1.1723e-10
1.21339e-10
1.15602e-10
1.40343e-10
1.13449e-10
1.55153e-10
1.10687e-10
1.65495e-10
1.07279e-10
1.71172e-10
1.03145e-10
1.72702e-10
9.83383e-11
1.69238e-10
9.28442e-11
1.63978e-10