/*--------------------------------*- C++ -*----------------------------------*\
| =========                 |                                                 |
| \\      /  F ield         | OpenFOAM: The Open Source CFD Toolbox           |
|  \\    /   O peration     | Version:  2.4.0                                 |
|   \\  /    A nd           | Web:      www.OpenFOAM.org                      |
|    \\/     M anipulation  |                                                 |
\*---------------------------------------------------------------------------*/
FoamFile
{
    version     2.0;
    format      ascii;
    class       volVectorField;
    location    "0.02";
    object      U;
}
// * * * * * * * * * * * * * * * * * * * * * * * * * * * * * * * * * * * * * //

dimensions      [0 1 -1 0 0 0 0];

internalField   nonuniform List<vector> 
7200
(
(2.93938e-07 4.50397e-07 0)
(1.44258e-06 2.50677e-06 1.58004e-23)
(-1.03894e-05 -2.26352e-05 -6.89237e-24)
(-4.66677e-05 -8.50336e-05 -3.00479e-24)
(-7.739e-05 -0.000114663 3.85141e-22)
(-4.60083e-05 -4.29045e-05 -1.28078e-21)
(0.000107938 0.000150915 -1.58078e-23)
(0.000450924 0.000457026 1.75387e-23)
(0.00104237 0.000836039 3.01555e-21)
(0.00190176 0.00121194 -5.3283e-23)
(0.00298021 0.0014835 1.83042e-21)
(0.00415711 0.00155562 1.65606e-21)
(0.00526404 0.00137365 1.34194e-21)
(0.00612427 0.000944292 0)
(0.00659344 0.000336404 1.80792e-24)
(0.0065912 -0.000336124 0)
(0.00611816 -0.000943247 4.55149e-24)
(0.00525567 -0.00137147 5.41753e-23)
(0.00414848 -0.00155251 -1.60757e-21)
(0.002973 -0.00148011 -7.26621e-23)
(0.00189684 -0.00120903 -2.57343e-23)
(0.00103969 -0.00083408 5.92904e-21)
(0.000449833 -0.00045604 -1.59761e-23)
(0.000107637 -0.000150571 -1.8048e-21)
(-4.60656e-05 4.29933e-05 -6.15711e-22)
(-7.74114e-05 0.000114703 -3.6618e-22)
(-4.66739e-05 8.5054e-05 0)
(-1.03843e-05 2.26344e-05 -9.7511e-24)
(1.44665e-06 -2.50983e-06 1.21372e-23)
(2.90745e-07 -4.50971e-07 -1.33526e-24)
(1.3578e-07 1.87574e-06 3.30329e-26)
(-3.49777e-06 -3.41119e-06 -1.28678e-23)
(-4.08239e-05 -0.000102718 -3.91371e-23)
(-0.000119951 -0.000266647 -5.62076e-24)
(-0.000142106 -0.000278019 -5.68395e-22)
(6.06864e-05 1.51614e-05 -6.00189e-23)
(0.000662072 0.000634495 1.96932e-23)
(0.0018321 0.00152813 -3.56502e-21)
(0.00369296 0.00256685 -1.6636e-22)
(0.00624371 0.00353781 2.31257e-21)
(0.00930968 0.00418443 -2.39952e-21)
(0.0125526 0.00428372 -2.46293e-21)
(0.0155369 0.00372126 -3.80986e-21)
(0.0178233 0.00253234 -5.96065e-22)
(0.0190603 0.000898149 5.72701e-23)
(0.0190546 -0.000896212 5.08524e-23)
(0.0178077 -0.00252867 -5.83017e-22)
(0.0155152 -0.00371497 1.97121e-21)
(0.0125297 -0.00427524 1.9002e-22)
(0.00928981 -0.00417524 -2.57807e-21)
(0.00622939 -0.00352972 2.38053e-21)
(0.00368452 -0.00256112 -2.01467e-22)
(0.00182819 -0.00152499 -3.59186e-21)
(0.000660744 -0.000633237 2.72811e-21)
(6.03646e-05 -1.47842e-05 9.49409e-22)
(-0.000142188 0.000278161 1.13699e-21)
(-0.000119981 0.000266718 5.20646e-24)
(-4.08244e-05 0.000102725 -4.08153e-25)
(-3.49086e-06 3.40272e-06 -1.90565e-23)
(1.28717e-07 -1.87803e-06 2.4744e-25)
(-7.63677e-07 2.97785e-06 -1.68592e-24)
(-1.55136e-05 -2.4446e-05 6.9622e-26)
(-9.03795e-05 -0.000206311 -4.48315e-23)
(-0.000195838 -0.000421802 3.70323e-22)
(-0.000132939 -0.000333624 -7.17366e-22)
(0.000368188 0.000239421 2.10478e-21)
(0.00156854 0.00129523 0)
(0.00370592 0.00272502 3.67182e-21)
(0.00691555 0.00430557 -4.41086e-21)
(0.0111303 0.00570967 -2.40901e-21)
(0.0160337 0.00657371 2.26521e-22)
(0.0210959 0.00660239 -1.81359e-23)
(0.0256745 0.00566093 1.83772e-21)
(0.0291423 0.00382119 6.00286e-22)
(0.0310065 0.00135059 -1.51745e-24)
(0.0309982 -0.00134583 -9.59042e-23)
(0.0291194 -0.00381432 5.90414e-22)
(0.0256422 -0.00565086 0)
(0.021061 -0.00658961 4.3189e-21)
(0.0160025 -0.00656008 2.23163e-21)
(0.0111068 -0.00569753 -2.32924e-21)
(0.00690079 -0.00429669 -4.28335e-21)
(0.00369845 -0.00271986 -2.55369e-23)
(0.00156565 -0.00129296 1.40282e-21)
(0.000367364 -0.000238662 1.37766e-23)
(-0.000133145 0.000333894 -1.32277e-21)
(-0.000195903 0.000421932 0)
(-9.03885e-05 0.000206336 -1.79383e-23)
(-1.55067e-05 2.44335e-05 0)
(-7.70669e-07 -2.98234e-06 2.42877e-24)
(-3.69575e-06 2.59982e-06 1.87102e-24)
(-3.88392e-05 -6.21259e-05 0)
(-0.000152904 -0.000321457 8.4157e-23)
(-0.000241824 -0.00053186 7.12612e-23)
(2.17648e-06 -0.000276414 7.35579e-22)
(0.000930208 0.000614663 -1.08787e-21)
(0.00286667 0.00209938 -2.37666e-23)
(0.00608261 0.00400226 -3.4639e-21)
(0.0106837 0.00601093 0)
(0.0165066 0.0077101 -3.38978e-23)
(0.0230916 0.00866975 2.32175e-21)
(0.0297472 0.00856207 -1.93781e-21)
(0.0356765 0.00725658 1.44511e-23)
(0.040122 0.00486315 0)
(0.0424982 0.00171369 4.36783e-23)
(0.042488 -0.00170523 8.88709e-23)
(0.0400936 -0.0048526 0)
(0.0356359 -0.00724288 1.42567e-23)
(0.0297025 -0.00854573 -2.07144e-21)
(0.0230504 -0.0086527 -2.2812e-21)
(0.0164744 -0.00769486 0)
(0.0106624 -0.0059995 0)
(0.00607099 -0.0039953 3.39724e-21)
(0.00286168 -0.00209609 -1.42229e-21)
(0.000928587 -0.000613458 -1.0463e-21)
(1.74881e-06 0.00027684 7.0122e-22)
(-0.00024195 0.000532055 0)
(-0.000152933 0.000321508 1.19539e-22)
(-3.88339e-05 6.21121e-05 2.95503e-27)
(-3.70189e-06 -2.6073e-06 0)
(-1.02459e-05 -5.82121e-07 4.13246e-24)
(-7.52926e-05 -0.000115799 8.24994e-25)
(-0.000216555 -0.000433991 -9.54295e-25)
(-0.000225871 -0.000579282 6.18476e-23)
(0.00030552 -0.000102118 8.34836e-22)
(0.00178641 0.00112758 1.87906e-23)
(0.00458116 0.003018 -4.46903e-23)
(0.00896026 0.00532294 3.5622e-21)
(0.0149659 0.00765233 0)
(0.0223215 0.00952941 -2.0724e-21)
(0.0304327 0.0104906 3.35324e-23)
(0.0384774 0.0102037 1.38265e-22)
(0.0455472 0.00855748 1.33731e-23)
(0.0508 0.00569761 1.26735e-24)
(0.0535933 0.00200233 -4.51444e-23)
(0.0535817 -0.00198955 -4.12723e-23)
(0.0507676 -0.00568304 4.52099e-22)
(0.0455004 -0.00854025 0)
(0.0384249 -0.0101844 -1.55182e-23)
(0.0303831 -0.0104709 1.49666e-23)
(0.0222812 -0.0095119 3.21389e-23)
(0.014938 -0.00763899 -3.02713e-23)
(0.00894405 -0.00531451 -3.44227e-21)
(0.00457357 -0.00301375 -1.38396e-21)
(0.00178366 -0.00112591 1.08564e-21)
(0.00030473 0.000102722 7.99735e-22)
(-0.000226096 0.000579548 4.97073e-22)
(-0.000216616 0.000434072 -1.24828e-22)
(-7.52935e-05 0.000115787 0)
(-1.02509e-05 5.7065e-07 0)
(-2.20904e-05 -7.84225e-06 8.98597e-25)
(-0.000123947 -0.000182316 1.9616e-23)
(-0.000263715 -0.000528451 -1.77924e-24)
(-0.00011268 -0.000550208 5.37965e-23)
(0.000818359 0.000188295 8.83936e-24)
(0.00297246 0.00176112 1.67482e-23)
(0.00673093 0.00402119 0)
(0.0123324 0.00665279 0)
(0.0197306 0.0092037 1.84466e-21)
(0.0285301 0.0111606 3.95611e-21)
(0.0380161 0.0120521 -1.82958e-21)
(0.0472653 0.0115609 3.46782e-21)
(0.0552944 0.00960288 0)
(0.0612109 0.00635547 0)
(0.0643425 0.00222813 0)
(0.06433 -0.00221058 0)
(0.0611759 -0.00633663 -4.51028e-22)
(0.0552432 -0.00958218 -4.3308e-24)
(0.0472068 -0.0115389 -1.62931e-21)
(0.0379595 -0.0120305 -1.39456e-23)
(0.0284827 -0.0111416 0)
(0.0196963 -0.00918907 0)
(0.0123113 -0.0066433 0)
(0.0067203 -0.00401619 2.77861e-21)
(0.00296822 -0.00175902 1.61035e-23)
(0.000817027 -0.000187513 -8.33936e-22)
(-0.000113063 0.000550545 -5.13205e-22)
(-0.000263827 0.000528566 0)
(-0.000123961 0.000182306 0)
(-2.2095e-05 7.8254e-06 0)
(-4.05194e-05 -2.01848e-05 -6.23265e-24)
(-0.000179814 -0.0002561 -5.89105e-23)
(-0.00027029 -0.0005895 -2.81553e-24)
(0.000136158 -0.000435517 5.41814e-23)
(0.00158063 0.000588869 -9.14475e-22)
(0.00451967 0.00249546 -1.90219e-23)
(0.009329 0.0050795 -1.35253e-21)
(0.016188 0.00796142 -2.49151e-23)
(0.0249464 0.0106446 -7.6564e-23)
(0.0350918 0.0126011 -3.81997e-21)
(0.0458073 0.0133708 3.66938e-21)
(0.0560954 0.0126638 -1.66944e-21)
(0.0649273 0.0104264 -1.14348e-23)
(0.0713868 0.00686264 3.89915e-22)
(0.0747912 0.0024007 -1.0786e-24)
(0.0747782 -0.00237809 1.05369e-24)
(0.0713501 -0.00683937 -3.8287e-22)
(0.0648732 -0.0104023 -5.87216e-22)
(0.0560326 -0.0126395 1.62937e-21)
(0.0457452 -0.0133478 1.29792e-23)
(0.0350382 -0.0125812 2.89778e-23)
(0.0249061 -0.0106293 -2.74004e-23)
(0.016162 -0.00795133 -2.4164e-23)
(0.00931497 -0.005074 -2.70335e-21)
(0.00451359 -0.00249304 -1.83782e-23)
(0.00157854 -0.000587941 -8.77229e-22)
(0.000135534 0.000435916 -6.21216e-22)
(-0.000270479 0.000589648 -5.95093e-24)
(-0.000179851 0.000256096 0)
(-4.05254e-05 2.01605e-05 0)
(-6.57452e-05 -3.81488e-05 0)
(-0.000232563 -0.000329496 4.38232e-23)
(-0.000205854 -0.000603263 0)
(0.00056114 -0.000231256 -6.92423e-22)
(0.0026304 0.00108932 1.37297e-23)
(0.00645491 0.00330888 0)
(0.012383 0.00616464 1.41937e-21)
(0.0205126 0.00922271 0)
(0.0305819 0.0119601 -1.77912e-21)
(0.0419702 0.0138523 1.80672e-21)
(0.0537775 0.0144644 -3.38066e-21)
(0.0649564 0.0135405 2.38263e-24)
(0.0744561 0.0110579 5.71111e-22)
(0.0813567 0.00724148 -3.32123e-23)
(0.0849796 0.00252827 0)
(0.0849664 -0.00250045 2.96773e-23)
(0.0813193 -0.00721369 7.37758e-22)
(0.0744004 -0.0110305 5.97928e-22)
(0.0648908 -0.0135141 1.24666e-23)
(0.0537113 -0.0144404 -1.61176e-21)
(0.0419115 -0.0138321 0)
(0.0305362 -0.0119447 -1.60357e-21)
(0.0204817 -0.00921251 -2.43249e-23)
(0.0123653 -0.00615898 2.67631e-21)
(0.00644664 -0.00330632 3.50919e-23)
(0.00262731 -0.00108832 8.84584e-22)
(0.000560166 0.000231683 -3.13175e-23)
(-0.000206156 0.000603434 -3.64432e-24)
(-0.000232637 0.000329494 2.63502e-24)
(-6.57561e-05 3.81136e-05 0)
(-9.60183e-05 -6.16632e-05 1.77763e-25)
(-0.000265387 -0.000393344 -1.04984e-22)
(-3.43459e-05 -0.000558505 -5.42286e-24)
(0.00120344 6.15059e-05 1.21579e-23)
(0.00400298 0.00167605 -1.43112e-23)
(0.00880035 0.00417882 0)
(0.0158955 0.00725037 0)
(0.0252889 0.0104149 0)
(0.0366068 0.0131402 1.56186e-21)
(0.0491325 0.0149191 1.62349e-24)
(0.0619026 0.0153509 1.68179e-21)
(0.0738403 0.0142168 -1.33909e-21)
(0.0838915 0.0115235 -4.68364e-23)
(0.0911473 0.00751121 -3.59101e-22)
(0.0949432 0.00261784 2.86009e-23)
(0.0949301 -0.00258475 -2.9807e-23)
(0.0911099 -0.00747887 -3.52071e-22)
(0.0838353 -0.0114928 9.58579e-24)
(0.0737732 -0.0141885 -9.3702e-24)
(0.0618335 -0.0153262 3.09964e-21)
(0.0490697 -0.014899 0)
(0.0365562 -0.0131252 1.64729e-21)
(0.0252532 -0.0104051 -2.2717e-23)
(0.015874 -0.00724493 -1.30369e-21)
(0.0087896 -0.00417636 -1.13855e-24)
(0.00399864 -0.0016751 -1.49032e-23)
(0.00120198 -6.11088e-05 7.11952e-22)
(-3.48113e-05 0.000558675 -8.01516e-24)
(-0.000265516 0.000393339 0)
(-9.60393e-05 6.16115e-05 0)
(-0.000126611 -8.99691e-05 3.40162e-25)
(-0.000254199 -0.000437752 -3.14679e-23)
(0.000284783 -0.000447571 -5.89559e-22)
(0.0021036 0.000437153 1.25744e-23)
(0.00573039 0.00233318 -1.47051e-23)
(0.0115734 0.00508272 1.1339e-21)
(0.0198648 0.00831299 -1.31223e-21)
(0.0304977 0.0115207 2.26087e-23)
(0.0429921 0.0141789 -1.60426e-21)
(0.05655 0.0158086 1.47972e-21)
(0.0701628 0.016048 2.42001e-23)
(0.0827419 0.0147162 9.88647e-23)
(0.0932444 0.0118462 -9.86402e-22)
(0.100783 0.00768829 3.02068e-22)
(0.104714 0.00267536 -2.87264e-23)
(0.104701 -0.00263704 0)
(0.100746 -0.00765145 0)
(0.0931887 -0.0118122 8.84022e-24)
(0.0826745 -0.0146862 -1.21213e-21)
(0.0700921 -0.0160229 -1.49915e-21)
(0.0564842 -0.0157889 -1.46486e-21)
(0.0429375 -0.0141648 0)
(0.0304576 -0.0115117 2.18545e-23)
(0.0198394 -0.00830818 1.22515e-21)
(0.0115599 -0.00508065 1.68833e-23)
(0.00572455 -0.00233247 9.07489e-22)
(0.00210151 -0.000436881 -1.09254e-23)
(0.00028409 0.000447696 8.88026e-24)
(-0.000254409 0.000437729 -1.40892e-22)
(-0.000126649 8.98921e-05 -3.08242e-25)
(-0.000148751 -0.000121618 8.04436e-24)
(-0.000167286 -0.00045296 3.58913e-22)
(0.0007951 -0.000266984 6.06714e-22)
(0.00330044 0.000886289 8.02529e-22)
(0.00784098 0.00304346 0)
(0.0147868 0.00599872 -1.17464e-21)
(0.0242851 0.00933175 8.78835e-23)
(0.0361185 0.0125267 0)
(0.0497105 0.015074 -1.41418e-21)
(0.0641972 0.0165296 -1.5381e-21)
(0.0785418 0.0165733 -1.30086e-21)
(0.0916583 0.0150601 1.02415e-22)
(0.102526 0.0120459 4.86879e-22)
(0.110286 0.00778688 -3.0272e-22)
(0.114321 0.00270589 -7.69581e-25)
(0.114308 -0.00266246 7.4462e-25)
(0.11025 -0.00774565 2.15026e-24)
(0.102471 -0.0120087 -2.8507e-24)
(0.0915916 -0.0150285 8.98002e-23)
(0.0784706 -0.0165479 9.63641e-24)
(0.0641294 -0.0165107 1.5007e-21)
(0.0496526 -0.0150611 1.34959e-21)
(0.0360746 -0.012519 -2.092e-23)
(0.0242559 -0.009328 -1.22731e-21)
(0.0147704 -0.00599741 -5.66479e-25)
(0.00783339 -0.00304322 -9.60339e-22)
(0.00329754 -0.000886281 7.79497e-22)
(0.000794101 0.000266995 -1.75105e-23)
(-0.000167609 0.000452891 1.55516e-22)
(-0.000148817 0.000121501 4.73861e-24)
(-0.000148606 -0.000154546 -9.14159e-24)
(3.45114e-05 -0.000430249 -2.02112e-22)
(0.00154151 -1.768e-05 -9.78956e-24)
(0.00483015 0.00139669 -2.83534e-23)
(0.0103592 0.00378909 1.49756e-23)
(0.0184487 0.00690631 1.74132e-23)
(0.0291474 0.0102891 1.22622e-21)
(0.0421305 0.0134234 2.0684e-23)
(0.0567366 0.0158262 2.75896e-21)
(0.0720521 0.0170926 -2.02435e-23)
(0.0870267 0.0169435 2.57214e-21)
(0.100589 0.0152679 1.1325e-21)
(0.111747 0.0121403 0)
(0.119676 0.00781918 -2.55203e-22)
(0.123788 0.00271376 0)
(0.123777 -0.0026654 0)
(0.119642 -0.0077737 0)
(0.111694 -0.0121001 3.94992e-22)
(0.100523 -0.0152346 1.12718e-21)
(0.086956 -0.0169179 1.17994e-21)
(0.0719834 -0.0170745 0)
(0.0566763 -0.0158148 -1.38621e-21)
(0.0420831 -0.0134174 1.23744e-21)
(0.0291147 -0.0102868 1.82987e-23)
(0.0184293 -0.00690613 -3.27778e-25)
(0.0103496 -0.00378961 -1.4653e-23)
(0.00482626 -0.00139713 -1.53092e-23)
(0.00154011 1.74726e-05 0)
(3.40339e-05 0.000430088 2.34602e-22)
(-0.000148711 0.000154368 -4.26053e-23)
(-0.000106424 -0.000186218 0)
(0.000397028 -0.000362772 2.99442e-22)
(0.00256849 0.000295166 -1.10267e-23)
(0.00672568 0.00195433 -3.63832e-23)
(0.0133054 0.00455246 1.48879e-23)
(0.022563 0.00778675 -1.67905e-23)
(0.0344403 0.0111706 1.15579e-21)
(0.0485123 0.0142048 -1.21253e-21)
(0.064047 0.0164387 -1.34386e-21)
(0.0800956 0.0175084 -1.88389e-23)
(0.095607 0.0171747 -1.21671e-21)
(0.109533 0.0153569 1.74864e-24)
(0.120917 0.0121448 7.06789e-24)
(0.128973 0.00779565 2.56409e-22)
(0.13314 0.00270266 -2.04672e-23)
(0.133129 -0.00264959 0)
(0.12894 -0.0077461 2.43694e-24)
(0.120867 -0.0121017 -3.99492e-22)
(0.10947 -0.0153221 -8.47229e-24)
(0.0955377 -0.017149 -2.28957e-21)
(0.0800268 -0.0174913 -1.16561e-21)
(0.0639851 -0.0164291 -1.90243e-23)
(0.0484622 -0.0142008 -1.2728e-21)
(0.0344043 -0.0111703 3.51782e-23)
(0.0225406 -0.00778809 -1.23317e-25)
(0.0132937 -0.00455407 8.79127e-22)
(0.00672062 -0.00195546 -1.57848e-21)
(0.00256658 -0.000295735 0)
(0.000396346 0.000362449 -2.45167e-22)
(-0.000106584 0.000185944 3.88756e-23)
(4.04853e-06 -0.000213827 0)
(0.000971451 -0.000246252 -2.97045e-22)
(0.00391844 0.000662678 -1.19945e-23)
(0.00901637 0.00254442 -8.26774e-22)
(0.0166959 0.00531662 -1.46776e-23)
(0.0271296 0.00862343 -9.97971e-22)
(0.04015 0.0119654 -1.15602e-21)
(0.0552432 0.0148679 1.22865e-21)
(0.0716202 0.0169165 -1.83432e-23)
(0.088311 0.0177885 -1.13408e-21)
(0.104275 0.0172821 1.80969e-23)
(0.118492 0.0153429 0)
(0.130048 0.0120729 0)
(0.138192 0.00772535 0)
(0.142396 0.00267575 3.93851e-23)
(0.142385 -0.00261825 0)
(0.138162 -0.00767195 2.06494e-22)
(0.130001 -0.012027 2.20969e-24)
(0.118432 -0.0153067 0)
(0.104207 -0.0172563 1.10832e-21)
(0.0882431 -0.0177726 2.31497e-21)
(0.0715576 -0.0169088 -1.14175e-21)
(0.055191 -0.0148662 1.07822e-21)
(0.0401112 -0.0119673 -2.33791e-26)
(0.0271044 -0.0086267 9.67503e-22)
(0.016682 -0.00531969 -9.15593e-22)
(0.00900998 -0.00254652 8.01734e-22)
(0.00391591 -0.000663797 -6.61316e-22)
(0.000970508 0.000245664 0)
(3.81331e-06 0.000213405 0)
(0.000215789 -0.000234525 0)
(0.00181252 -7.94429e-05 0)
(0.00563024 0.00107312 6.81178e-22)
(0.0117278 0.00315228 1.26694e-23)
(0.0205428 0.00606574 -1.43617e-23)
(0.032145 0.00940214 1.00256e-21)
(0.0462615 0.0126654 3.30324e-23)
(0.0623029 0.0154124 -1.75107e-23)
(0.0794368 0.0172664 0)
(0.0966844 0.0179448 1.12964e-21)
(0.113023 0.0172797 9.82951e-22)
(0.127469 0.0152401 -5.88819e-24)
(0.139148 0.0119364 3.20355e-22)
(0.14735 0.00761608 -5.45635e-25)
(0.151574 0.00263575 -1.83622e-23)
(0.151565 -0.00257411 1.53494e-23)
(0.147322 -0.00755907 -2.09202e-22)
(0.139104 -0.0118879 3.06019e-22)
(0.127413 -0.0152025 -8.00488e-22)
(0.112959 -0.0172539 0)
(0.0966181 -0.01793 -7.36972e-23)
(0.0793743 -0.0172607 2.16579e-21)
(0.0622492 -0.0154132 -1.09387e-21)
(0.0462202 -0.0126698 9.84546e-26)
(0.032117 -0.00940773 -6.69035e-23)
(0.0205266 -0.00607065 8.23633e-22)
(0.0117199 -0.00315566 7.61823e-22)
(0.00562697 -0.00107502 6.75406e-22)
(0.00181124 7.84516e-05 9.69491e-24)
(0.000215457 0.000233882 0)
(0.000568291 -0.000245674 0)
(0.00297634 0.000135666 3.7395e-22)
(0.00773816 0.00151293 -1.37886e-21)
(0.0148817 0.00376403 -7.87196e-22)
(0.0248542 0.00678535 -8.42533e-22)
(0.037602 0.0101112 1.45346e-23)
(0.0527585 0.0132654 -1.56689e-23)
(0.069672 0.01584 0)
(0.0874794 0.0174959 -1.01106e-21)
(0.105204 0.0179887 9.61202e-22)
(0.121848 0.017181 -9.64514e-22)
(0.136467 0.0150612 6.82424e-24)
(0.148228 0.0117457 -6.04912e-22)
(0.156459 0.00747457 0)
(0.160692 0.00258496 0)
(0.160683 -0.00251951 -1.59449e-23)
(0.156434 -0.00741423 1.87959e-24)
(0.148187 -0.0116947 -2.88443e-23)
(0.136414 -0.0150223 7.98834e-22)
(0.121787 -0.017155 8.71196e-22)
(0.10514 -0.017975 -1.97077e-21)
(0.0874177 -0.0174923 -1.05744e-21)
(0.0696176 -0.0158434 1.56746e-23)
(0.0527153 -0.0132728 -1.47571e-23)
(0.0375716 -0.0101195 -9.08006e-22)
(0.0248358 -0.00679251 -8.57169e-22)
(0.0148722 -0.00376907 -7.96973e-22)
(0.00773404 -0.0015159 -6.23728e-22)
(0.00297467 -0.000137244 5.63708e-24)
(0.000567836 0.000244708 -4.26672e-24)
(0.00110689 -0.000245072 -4.56169e-22)
(0.00451811 0.00039395 -2.97182e-23)
(0.0102712 0.00196785 1.31331e-21)
(0.0184963 0.00436711 8.11215e-22)
(0.0296342 0.00746255 8.6317e-22)
(0.0434913 0.0107417 -1.36981e-23)
(0.0596244 0.0137632 1.47142e-23)
(0.0773319 0.0161544 0)
(0.095732 0.0176137 1.02207e-21)
(0.113859 0.0179318 -9.84982e-22)
(0.130746 0.016998 0)
(0.145488 0.0148175 0)
(0.157295 0.0115099 2.90417e-22)
(0.165534 0.00730664 4.60273e-25)
(0.169763 0.0025254 1.41824e-23)
(0.169756 -0.00245648 4.38464e-25)
(0.165511 -0.00724324 -4.36263e-25)
(0.157258 -0.0114566 -2.77256e-22)
(0.145439 -0.0147773 6.76623e-22)
(0.130689 -0.016972 -1.67279e-21)
(0.113798 -0.0179191 9.65496e-22)
(0.0956719 -0.0176121 -1.41945e-23)
(0.0772775 -0.0161605 8.87778e-22)
(0.0595798 -0.0137736 0)
(0.0434588 -0.010753 1.32459e-23)
(0.0296135 -0.00747234 -1.21104e-23)
(0.0184851 -0.00437419 0)
(0.0102661 -0.00197222 1.24171e-21)
(0.00451596 -0.000396346 0)
(0.00110628 0.000243647 -4.44665e-22)
(0.00188163 -0.000231152 4.80938e-22)
(0.00648973 0.000687534 2.73121e-22)
(0.0132528 0.00242401 -6.5374e-22)
(0.0225861 0.00495048 1.15548e-23)
(0.0348827 0.00808614 -1.28701e-23)
(0.049801 0.0112872 8.04301e-22)
(0.066842 0.0141584 -2.72666e-23)
(0.0852652 0.0163607 1.42799e-23)
(0.104181 0.0176286 8.68143e-22)
(0.122641 0.0177849 -1.2837e-23)
(0.139714 0.0167422 -7.49366e-22)
(0.154536 0.0145191 1.19744e-24)
(0.166359 0.0112369 2.48067e-22)
(0.174586 0.00711733 -4.22488e-25)
(0.178802 0.00245878 -1.42868e-23)
(0.178795 -0.00238675 -4.00537e-25)
(0.174565 -0.00705118 1.97379e-24)
(0.166326 -0.0111816 2.38441e-22)
(0.154492 -0.0144778 -7.03433e-23)
(0.139661 -0.0167161 7.60222e-23)
(0.122584 -0.0177732 0)
(0.104123 -0.017629 -8.29168e-22)
(0.0852115 -0.0163696 -1.73427e-21)
(0.0667967 -0.014172 1.28142e-23)
(0.0497667 -0.0113017 7.55764e-22)
(0.0348601 -0.00809893 -1.13521e-23)
(0.0225733 -0.00496001 0)
(0.0132467 -0.00243014 -6.27676e-22)
(0.00648704 -0.000691026 8.21366e-25)
(0.00188085 0.00022909 4.82025e-22)
(0.00294581 -0.000203115 7.75494e-22)
(0.00893778 0.0010064 -3.91338e-22)
(0.0167012 0.00286885 -5.90275e-22)
(0.0271625 0.0055047 0)
(0.0405962 0.0086467 0)
(0.0565176 0.0117437 -8.19077e-22)
(0.0743947 0.0144528 1.27724e-23)
(0.0934558 0.0164651 8.00541e-22)
(0.112813 0.0175499 -7.62958e-23)
(0.131543 0.0175586 7.55055e-22)
(0.148751 0.0164239 7.79863e-22)
(0.163614 0.0141753 -9.51459e-24)
(0.175426 0.0109337 -2.40462e-22)
(0.183625 0.00691099 0)
(0.18782 0.00238656 0)
(0.187814 -0.00231178 0)
(0.183607 -0.00684238 0)
(0.175397 -0.0108765 -2.32638e-22)
(0.163575 -0.0141329 -6.22085e-22)
(0.148703 -0.0163978 1.40207e-21)
(0.13149 -0.0175479 7.47754e-22)
(0.112758 -0.0175522 6.30837e-23)
(0.0934034 -0.0164768 8.79486e-23)
(0.0743491 -0.0144697 1.31281e-25)
(0.056482 -0.0117618 -7.01915e-23)
(0.0405717 -0.00866283 9.08584e-25)
(0.0271481 -0.00551708 -1.03355e-23)
(0.016694 -0.00287714 0)
(0.0089345 -0.00101132 0)
(0.00294481 0.000200196 0)
(0.00435413 -0.000160999 -1.82807e-21)
(0.0119018 0.00133921 -4.23277e-22)
(0.0206296 0.0032918 6.0171e-22)
(0.0322333 0.00602179 -6.78177e-22)
(0.0467672 0.00913673 0)
(0.0636263 0.0121099 0)
(0.0822656 0.0146497 0)
(0.101888 0.0164746 -8.11126e-22)
(0.121618 0.0173869 -1.53594e-21)
(0.14056 0.017263 -7.96641e-22)
(0.157856 0.0160526 6.4497e-22)
(0.172727 0.0137939 4.86919e-24)
(0.184504 0.0106064 -2.04476e-22)
(0.19266 0.00669138 0)
(0.196829 0.00231003 0)
(0.196824 -0.00223286 0)
(0.192645 -0.00662062 1.3152e-24)
(0.184479 -0.0105475 1.95508e-22)
(0.172692 -0.0137506 0)
(0.157813 -0.0160263 -6.75587e-22)
(0.140511 -0.0172531 -7.41855e-22)
(0.121567 -0.017391 7.71309e-22)
(0.101838 -0.0164889 7.66607e-22)
(0.0822205 -0.0146699 6.78732e-22)
(0.0635899 -0.0121316 -7.11638e-22)
(0.0467412 -0.00915649 1.0655e-23)
(0.0322173 -0.00603739 2.75841e-25)
(0.0206213 -0.00330265 -8.78991e-24)
(0.0118979 -0.00134591 0)
(0.00435289 0.000156953 0)
(0.00616082 -0.000105666 2.24212e-21)
(0.0154132 0.00167411 2.38111e-22)
(0.0250472 0.00368466 0)
(0.0378029 0.00649502 6.98318e-22)
(0.0533856 0.00955067 0)
(0.0711119 0.0123863 0)
(0.0904388 0.0147537 6.56088e-22)
(0.110549 0.0163968 0)
(0.130586 0.0171486 6.85306e-23)
(0.149685 0.0169073 -9.99137e-24)
(0.167029 0.0156369 -6.33135e-22)
(0.181878 0.0133823 -3.53503e-24)
(0.1936 0.0102603 3.96325e-22)
(0.201701 0.00646174 5.87032e-23)
(0.205837 0.00223028 0)
(0.205833 -0.00215108 0)
(0.201688 -0.00638916 1.19986e-24)
(0.193579 -0.0101999 -1.99069e-22)
(0.181848 -0.0133381 0)
(0.166991 -0.0156105 0)
(0.149641 -0.0168982 1.04773e-23)
(0.130538 -0.0171544 -1.0177e-23)
(0.110501 -0.0164137 6.44946e-22)
(0.0903947 -0.0147772 -6.88452e-22)
(0.0710752 -0.0124118 9.47295e-24)
(0.0533584 -0.0095743 -8.81467e-24)
(0.0377855 -0.0065142 0)
(0.0250377 -0.00369848 -5.33459e-22)
(0.0154085 -0.001683 -1.77457e-23)
(0.00615931 0.000100177 -1.18119e-21)
(0.00841768 -3.87189e-05 -1.26897e-21)
(0.0194943 0.00199969 1.12942e-22)
(0.0299596 0.00404172 6.15349e-22)
(0.0438724 0.00691876 5.73923e-22)
(0.060438 0.00988498 -9.53474e-24)
(0.0789586 0.0125752 9.40928e-24)
(0.0988985 0.0147703 -7.81074e-23)
(0.119425 0.0162396 -6.19565e-22)
(0.139708 0.016844 1.30411e-21)
(0.158916 0.0165004 -9.15627e-24)
(0.17627 0.0151847 9.35227e-24)
(0.19107 0.0129467 2.2192e-22)
(0.20272 0.0099 -3.56058e-22)
(0.210755 0.0062249 -5.92877e-23)
(0.214853 0.00214823 -9.30144e-24)
(0.21485 -0.00206737 -8.46913e-24)
(0.210745 -0.00615079 2.75111e-25)
(0.202703 -0.00983844 -1.63721e-22)
(0.191045 -0.0129018 -2.15947e-22)
(0.176238 -0.0151582 0)
(0.158877 -0.0164919 0)
(0.139664 -0.0168513 0)
(0.11938 -0.0162589 -6.52348e-22)
(0.0988561 -0.014797 9.11925e-24)
(0.0789221 -0.0126045 8.50183e-24)
(0.06041 -0.00991265 -1.66894e-23)
(0.0438537 -0.00694183 8.02682e-24)
(0.0299491 -0.00405892 -9.60424e-24)
(0.019489 -0.00201118 1.24467e-22)
(0.00841587 3.14288e-05 1.25352e-21)
(0.0111723 3.7641e-05 0)
(0.0241592 0.00230562 -7.0528e-22)
(0.03537 0.00435955 3.22169e-23)
(0.0504391 0.00728825 -5.81704e-22)
(0.0679093 0.0101382 -4.65605e-22)
(0.0871508 0.0126807 8.37681e-24)
(0.10763 0.0147057 -6.16948e-22)
(0.128504 0.0160111 1.20148e-21)
(0.148976 0.0164816 -6.35395e-22)
(0.168248 0.0160503 5.40607e-22)
(0.185579 0.0147029 4.86944e-24)
(0.200306 0.0124929 -2.22846e-22)
(0.21187 0.0095296 1.72084e-22)
(0.21983 0.00598326 -4.90573e-23)
(0.223886 0.00206471 9.64523e-24)
(0.223884 -0.00198253 1.56442e-23)
(0.219822 -0.00590795 9.94954e-25)
(0.211856 -0.00946706 1.63624e-22)
(0.200286 -0.0124473 2.13742e-22)
(0.185552 -0.0146763 3.51088e-24)
(0.168214 -0.0160425 8.69438e-24)
(0.148937 -0.0164903 -8.47679e-24)
(0.128463 -0.0160326 5.22903e-22)
(0.10759 -0.0147355 0)
(0.087115 -0.0127137 -4.71226e-22)
(0.0678809 -0.01017 0)
(0.0504194 -0.00731548 4.38299e-22)
(0.0353585 -0.0043805 5.89317e-22)
(0.0241532 -0.00232015 -1.15299e-22)
(0.0111702 -4.71268e-05 -1.69049e-21)
(0.0144666 0.000120804 -1.9777e-21)
(0.0294132 0.00258335 5.36643e-22)
(0.0412793 0.00463665 -6.89968e-22)
(0.0574968 0.00759956 0)
(0.0757825 0.0103107 8.76138e-22)
(0.0956729 0.0127076 -4.6112e-22)
(0.116619 0.0145666 -1.62695e-23)
(0.137776 0.0157193 -5.13498e-23)
(0.158384 0.0160695 0)
(0.177679 0.0155646 -5.52243e-22)
(0.194957 0.014198 7.78334e-24)
(0.209591 0.0120258 -2.70014e-24)
(0.221054 0.00915262 3.6778e-24)
(0.228932 0.00573891 3.80328e-24)
(0.232942 0.00198039 -8.34764e-24)
(0.232941 -0.00189725 -7.22029e-24)
(0.228926 -0.0056627 -4.10325e-23)
(0.221043 -0.00908932 -8.98441e-25)
(0.209576 -0.0119797 0)
(0.194935 -0.0141713 0)
(0.177651 -0.0155573 0)
(0.15835 -0.0160794 0)
(0.137738 -0.0157429 -5.37486e-22)
(0.116581 -0.0145992 7.44237e-24)
(0.0956384 -0.0127443 4.87034e-22)
(0.0757541 -0.0103467 -6.29128e-24)
(0.0574764 -0.00763114 -4.51017e-22)
(0.0412669 -0.00466168 2.68352e-24)
(0.0294065 -0.00260134 4.75163e-22)
(0.0144641 -0.000132906 3.73557e-21)
(0.0183356 0.000207959 2.09114e-21)
(0.0352546 0.00282635 4.46662e-24)
(0.0476868 0.0048729 8.38679e-22)
(0.0650356 0.00784957 0)
(0.0840398 0.0104051 -4.17147e-22)
(0.10451 0.0126618 4.70956e-22)
(0.125851 0.0143598 4.37688e-22)
(0.14723 0.0153721 -4.87785e-23)
(0.167927 0.0156154 -4.66391e-22)
(0.187207 0.0150501 -4.53371e-22)
(0.204405 0.0136756 4.02299e-24)
(0.218927 0.0115498 6.31365e-25)
(0.230277 0.00877211 3.35187e-24)
(0.238066 0.00549366 8.4758e-23)
(0.242028 0.00189588 8.36372e-24)
(0.242027 -0.0018121 0)
(0.238063 -0.00541683 4.27356e-23)
(0.23027 -0.00870827 -8.15634e-25)
(0.218916 -0.0115033 0)
(0.204387 -0.0136488 0)
(0.187184 -0.0150432 7.12569e-24)
(0.167898 -0.0156264 -4.40248e-22)
(0.147197 -0.0153976 -4.22495e-22)
(0.125816 -0.0143951 -3.85361e-22)
(0.104477 -0.012702 -3.74749e-25)
(0.0840119 -0.0104452 3.13276e-22)
(0.0650147 -0.00788562 2.24264e-22)
(0.0476737 -0.0049023 -5.75756e-24)
(0.0352474 -0.0028482 1.83553e-22)
(0.0183328 -0.000223111 -4.3106e-21)
(0.0228068 0.000296297 0)
(0.0416757 0.00303035 0)
(0.0545902 0.00506909 -8.73359e-22)
(0.0730421 0.00803608 4.23468e-24)
(0.0926632 0.0104252 -3.42383e-22)
(0.113648 0.0125494 3.75986e-22)
(0.135314 0.0140924 -4.511e-22)
(0.156859 0.0149773 -4.68419e-22)
(0.177598 0.0151263 4.64661e-22)
(0.196829 0.0145132 4.66431e-23)
(0.213922 0.0131408 -3.62137e-22)
(0.228317 0.0110687 0)
(0.239544 0.00839071 0)
(0.247238 0.00524902 -4.10528e-23)
(0.251149 0.00181168 0)
(0.251149 -0.00172758 1.86158e-25)
(0.247237 -0.00517187 -1.85682e-25)
(0.239541 -0.00832655 1.11373e-22)
(0.22831 -0.011022 0)
(0.21391 -0.0131141 0)
(0.196812 -0.0145066 3.84826e-22)
(0.177574 -0.0151382 4.31649e-22)
(0.156831 -0.0150043 4.21889e-22)
(0.135283 -0.0141302 3.98303e-22)
(0.113617 -0.0125929 1.05734e-23)
(0.0926362 -0.0104694 -3.25933e-22)
(0.0730211 -0.00807666 -3.35926e-22)
(0.0545766 -0.00510306 -9.12656e-22)
(0.041668 -0.00305642 1.9834e-22)
(0.0228038 -0.000314927 2.34659e-21)
(0.0279001 0.000383189 0)
(0.0486639 0.00319315 0)
(0.0619856 0.00522639 -1.09294e-21)
(0.0814997 0.00815794 -1.06108e-23)
(0.101635 0.0103766 6.49602e-22)
(0.123073 0.0123769 -3.76215e-22)
(0.144996 0.0137715 -3.3943e-22)
(0.166654 0.0145421 3.70796e-22)
(0.187393 0.014609 0)
(0.206545 0.0139594 4.0219e-22)
(0.223511 0.0125982 7.08692e-22)
(0.237764 0.0105859 5.11882e-25)
(0.248859 0.00801071 2.77307e-24)
(0.256453 0.00500633 -7.234e-25)
(0.26031 0.00172821 0)
(0.26031 -0.00164411 0)
(0.256454 -0.00492912 6.71924e-25)
(0.248859 -0.00794646 -2.13377e-22)
(0.237761 -0.0105391 1.29988e-22)
(0.223504 -0.0125715 3.16166e-22)
(0.206532 -0.0139531 -3.76024e-22)
(0.187375 -0.0146216 -5.65539e-24)
(0.16663 -0.0145705 -3.32834e-22)
(0.144968 -0.0138115 4.87265e-24)
(0.123045 -0.0124234 2.60034e-22)
(0.101609 -0.0104247 -4.25924e-24)
(0.081479 -0.00820302 1.03241e-22)
(0.0619716 -0.00526508 -9.82213e-23)
(0.0486558 -0.00322374 -9.05558e-22)
(0.0278968 -0.000405709 0)
(0.0336274 0.000466327 0)
(0.0562032 0.00331443 1.28099e-21)
(0.0698673 0.00534607 1.11661e-21)
(0.0903895 0.00821524 1.24735e-23)
(0.110937 0.0102658 -6.11851e-22)
(0.132771 0.0121504 2.54067e-22)
(0.154884 0.0134042 4.12364e-23)
(0.176607 0.0140735 -3.81099e-22)
(0.197309 0.0140695 1.25135e-25)
(0.216353 0.0133939 4.05398e-25)
(0.233173 0.0120518 -3.29057e-22)
(0.24727 0.0101043 1.25141e-22)
(0.258225 0.00763407 9.84951e-23)
(0.265714 0.00476668 -6.5749e-25)
(0.269516 0.00164586 0)
(0.269517 -0.00156203 0)
(0.265717 -0.00468969 6.06371e-25)
(0.258227 -0.00756993 1.00674e-22)
(0.247271 -0.0100576 -1.31065e-22)
(0.23317 -0.0120251 -3.18272e-22)
(0.216345 -0.0133878 0)
(0.197295 -0.0140827 3.10158e-22)
(0.176588 -0.0141031 3.3244e-22)
(0.154861 -0.0134461 8.66301e-24)
(0.132745 -0.0121998 -2.69145e-22)
(0.110913 -0.0103175 0)
(0.0903694 -0.00826472 9.33641e-24)
(0.0698532 -0.00538954 1.06964e-21)
(0.0561949 -0.00334979 1.29217e-21)
(0.0336239 -0.000493109 -3.07813e-21)
(0.0399937 0.000543809 0)
(0.0642753 0.00339537 -2.79543e-21)
(0.0782277 0.00542924 -1.37406e-21)
(0.0996901 0.00820939 0)
(0.120554 0.0100999 4.15426e-24)
(0.142729 0.0118762 -5.41567e-23)
(0.16497 0.0129973 3.7085e-23)
(0.186713 0.0135779 0)
(0.207341 0.0135133 0)
(0.226251 0.0128213 2.89998e-22)
(0.242907 0.0115051 1.41144e-22)
(0.256837 0.00962653 -1.28258e-22)
(0.267644 0.00726246 -9.83811e-23)
(0.275026 0.00453103 2.79801e-23)
(0.27877 0.00156492 -2.6418e-24)
(0.278771 -0.00148164 0)
(0.27503 -0.0044545 2.49583e-23)
(0.26765 -0.00719864 0)
(0.256842 -0.00957997 -1.94459e-24)
(0.242909 -0.0114785 -1.2481e-22)
(0.226248 -0.0128155 -2.71024e-22)