# Wall shear stress
# Time       	patch        	min          	max          
0.000000e+00	Bottom	(0.000000e+00 0.000000e+00 0.000000e+00)	(0.000000e+00 0.000000e+00 0.000000e+00)
5.000000e-03	Bottom	(-3.994190e-01 -5.491075e-02 -2.493349e-19)	(3.140978e-02 5.528354e-02 1.553338e-19)
1.000000e-02	Bottom	(-1.853901e+00 -3.948678e-01 -1.986514e-18)	(4.447119e-02 3.948846e-01 1.264375e-18)
1.500000e-02	Bottom	(-3.055238e+00 -7.091397e-01 -3.574146e-18)	(7.740147e-02 7.081908e-01 2.450014e-18)
2.000000e-02	Bottom	(-3.728275e+00 -8.894876e-01 -4.480944e-18)	(9.578805e-02 8.877022e-01 3.145029e-18)
2.500000e-02	Bottom	(-4.061355e+00 -9.792172e-01 -4.934528e-18)	(1.048814e-01 9.768947e-01 3.491798e-18)
