/*--------------------------------*- C++ -*----------------------------------*\
| =========                 |                                                 |
| \\      /  F ield         | OpenFOAM: The Open Source CFD Toolbox           |
|  \\    /   O peration     | Version:  2.4.0                                 |
|   \\  /    A nd           | Web:      www.OpenFOAM.org                      |
|    \\/     M anipulation  |                                                 |
\*---------------------------------------------------------------------------*/
FoamFile
{
    version     2.0;
    format      ascii;
    class       volScalarField;
    location    "0.03";
    object      p;
}
// * * * * * * * * * * * * * * * * * * * * * * * * * * * * * * * * * * * * * //

dimensions      [0 2 -2 0 0 0 0];

internalField   nonuniform List<scalar> 
7200
(
4.30093e-07
-1.64979
1.0648
-1.1406
-0.207261
-0.635336
-0.50451
-0.594556
-0.592874
-0.623399
-0.639987
-0.660265
-0.67848
-0.697114
-0.715737
-0.734924
-0.754865
-0.776188
-0.798436
-0.825573
-0.84547
-0.906154
-0.841061
-1.23332
-0.120591
-4.07141
8.5885
-28.7732
54.6136
-58.0697
-0.0204885
-1.70398
0.785425
-0.863998
-0.298991
-0.590217
-0.514706
-0.585588
-0.592141
-0.620719
-0.63876
-0.659306
-0.678139
-0.697312
-0.716551
-0.736424
-0.757169
-0.779391
-0.802951
-0.830694
-0.855405
-0.906445
-0.88738
-1.12863
-0.564937
-2.64063
3.97397
-17.8748
38.4222
-48.3156
-0.0132893
-1.75928
0.54884
-0.719099
-0.321728
-0.570648
-0.515602
-0.580753
-0.590672
-0.618869
-0.637705
-0.658592
-0.677894
-0.697531
-0.717297
-0.737778
-0.75925
-0.782325
-0.807046
-0.835801
-0.863394
-0.912445
-0.910033
-1.11042
-0.700518
-2.24643
2.28581
-12.6614
28.6196
-42.4611
-0.000536388
-1.79335
0.335999
-0.650237
-0.328017
-0.556581
-0.514837
-0.576925
-0.589377
-0.617359
-0.636827
-0.657979
-0.677663
-0.697683
-0.717906
-0.73893
-0.76108
-0.784963
-0.810825
-0.840599
-0.870985
-0.9187
-0.930744
-1.1006
-0.79872
-2.02731
1.39523
-9.68548
21.8148
-37.6212
0.0136102
-1.80673
0.142407
-0.630597
-0.333899
-0.546865
-0.513783
-0.573853
-0.588351
-0.616161
-0.636127
-0.657458
-0.677441
-0.697768
-0.718383
-0.739898
-0.762686
-0.787354
-0.814354
-0.845218
-0.878283
-0.925565
-0.949545
-1.09794
-0.870359
-1.89919
0.847353
-7.85161
16.7574
-33.3005
0.027661
-1.80524
-0.0257942
-0.646771
-0.34622
-0.542157
-0.513884
-0.571729
-0.587797
-0.615354
-0.63566
-0.65706
-0.677238
-0.697781
-0.718711
-0.740649
-0.764027
-0.789451
-0.817571
-0.849589
-0.885262
-0.932686
-0.967311
-1.09749
-0.934375
-1.81319
0.457015
-6.7213
13.0159
-29.4974
0.0404975
-1.79416
-0.165556
-0.686957
-0.367979
-0.543463
-0.516322
-0.571025
-0.587977
-0.615071
-0.635505
-0.65683
-0.67707
-0.697714
-0.71886
-0.741135
-0.765031
-0.791161
-0.820362
-0.853578
-0.891754
-0.939859
-0.983762
-1.09969
-0.995443
-1.75309
0.139635
-6.01841
10.2953
-26.1512
0.0512682
-1.77803
-0.277689
-0.74025
-0.399647
-0.551313
-0.522054
-0.572248
-0.589199
-0.61547
-0.635754
-0.656813
-0.676951
-0.697558
-0.718795
-0.7413
-0.765619
-0.792384
-0.822601
-0.857026
-0.897595
-0.946815
-0.999033
-1.10477
-1.05573
-1.70837
-0.148812
-5.53109
8.32871
-23.1865
0.0594517
-1.76049
-0.365302
-0.797976
-0.439775
-0.565683
-0.531679
-0.575859
-0.591774
-0.616722
-0.636507
-0.657061
-0.676899
-0.697301
-0.71848
-0.741081
-0.765704
-0.793004
-0.824141
-0.85975
-0.90259
-0.953298
-1.01318
-1.11267
-1.1142
-1.67327
-0.417626
-5.12341
6.90297
-20.5408
0.0647242
-1.74419
-0.432659
-0.854009
-0.485907
-0.585982
-0.545406
-0.582189
-0.595975
-0.618999
-0.637865
-0.657626
-0.67693
-0.696929
-0.717873
-0.740409
-0.765185
-0.792886
-0.824813
-0.861532
-0.906496
-0.958984
-1.02602
-1.12244
-1.16811
-1.64233
-0.658792
-4.71933
5.85699
-18.1635
0.0668552
-1.73078
-0.484425
-0.904564
-0.535316
-0.611179
-0.563089
-0.591395
-0.602008
-0.622453
-0.639926
-0.65856
-0.677059
-0.696425
-0.716928
-0.739206
-0.763951
-0.791881
-0.824419
-0.862115
-0.908999
-0.963405
-1.03698
-1.13216
-1.21378
-1.60939
-0.859021
-4.28381
5.07219
-16.0129
0.065637
-1.72108
-0.52511
-0.947792
-0.585512
-0.639997
-0.584292
-0.603446
-0.609981
-0.627194
-0.642769
-0.659906
-0.677297
-0.69577
-0.715592
-0.737386
-0.761878
-0.789816
-0.822731
-0.861189
-0.909687
-0.965897
-1.04502
-1.1392
-1.24717
-1.56787
-1.00658
-3.80817
4.46364
-14.0552
0.0608386
-1.71531
-0.558724
-0.983326
-0.634526
-0.671104
-0.608389
-0.618146
-0.619904
-0.633283
-0.646453
-0.661697
-0.677648
-0.694938
-0.713809
-0.734858
-0.75883
-0.786502
-0.819488
-0.858384
-0.908032
-0.965587
-1.04871
-1.1405
-1.26446
-1.51168
-1.0945
-3.29913
3.97268
-12.2627
0.0521767
-1.71332
-0.588582
-1.01181
-0.681031
-0.703279
-0.63466
-0.635177
-0.63169
-0.640727
-0.651004
-0.663952
-0.67811
-0.6939
-0.711518
-0.73152
-0.75466
-0.781729
-0.814396
-0.853275
-0.903401
-0.961424
-1.04634
-1.13303
-1.26243
-1.43604
-1.12145
-2.77088
3.56054
-10.6138
0.0393019
-1.7147
-0.617265
-1.03449
-0.724338
-0.735525
-0.662391
-0.654143
-0.645179
-0.649479
-0.656422
-0.666675
-0.678674
-0.692623
-0.708654
-0.727271
-0.749215
-0.775275
-0.807134
-0.845388
-0.895079
-0.952254
-1.03618
-1.11407
-1.23879
-1.33808
-1.09111
-2.23966
3.20303
-9.091
0.0217946
-1.71901
-0.646666
-1.0529
-0.764307
-0.767126
-0.690941
-0.674631
-0.660161
-0.659454
-0.662678
-0.669852
-0.67932
-0.691069
-0.705152
-0.722006
-0.742337
-0.766909
-0.797365
-0.834221
-0.882314
-0.936917
-1.0166
-1.08151
-1.1924
-1.21707
-1.01086
-1.7204
2.88603
-7.68078
-0.00083081
-1.72582
-0.678093
-1.06859
-0.801225
-0.797668
-0.719797
-0.696245
-0.676403
-0.670536
-0.669721
-0.673459
-0.680024
-0.689199
-0.700947
-0.71562
-0.733869
-0.756398
-0.78475
-0.819271
-0.864374
-0.91436
-0.986304
-1.03401
-1.12331
-1.07424
-0.89019
-1.22495
2.60206
-6.37243
-0.0291179
-1.73482
-0.712401
-1.08303
-0.835668
-0.827016
-0.7486
-0.718651
-0.693679
-0.682595
-0.677486
-0.677461
-0.680759
-0.686975
-0.695976
-0.708016
-0.723664
-0.743523
-0.768968
-0.800072
-0.840609
-0.883724
-0.94442
-0.97104
-1.03269
-0.912446
-0.739292
-0.761476
2.34765
-5.15754
-0.0636571
-1.74582
-0.750119
-1.09745
-0.868381
-0.855266
-0.777153
-0.741593
-0.711788
-0.695506
-0.685904
-0.68182
-0.681495
-0.684362
-0.690185
-0.699109
-0.711588
-0.728087
-0.749733
-0.776225
-0.810503
-0.844428
-0.890579
-0.892896
-0.922658
-0.735616
-0.567917
-0.334594
2.12147
-4.02934
-0.105074
-1.75877
-0.791569
-1.11291
-0.900172
-0.882701
-0.805409
-0.764911
-0.730575
-0.709158
-0.694909
-0.686498
-0.682208
-0.681331
-0.683531
-0.688827
-0.697534
-0.709928
-0.726819
-0.747432
-0.773722
-0.796208
-0.824923
-0.800576
-0.796043
-0.548231
-0.384629
0.0540792
1.92304
-2.98231
-0.154016
-1.77372
-0.836958
-1.13022
-0.931847
-0.909723
-0.833456
-0.788536
-0.749934
-0.723464
-0.704446
-0.691465
-0.682878
-0.677863
-0.675984
-0.677121
-0.681421
-0.688931
-0.700073
-0.713519
-0.730138
-0.739135
-0.748073
-0.695656
-0.656109
-0.354822
-0.196403
0.405183
1.752
-2.01177
-0.211144
-1.79084
-0.886443
-1.15004
-0.964154
-0.936815
-0.861485
-0.812489
-0.769823
-0.738372
-0.714479
-0.696702
-0.683497
-0.673953
-0.667532
-0.663968
-0.663211
-0.665038
-0.669432
-0.674452
-0.67984
-0.673599
-0.661052
-0.580114
-0.506291
-0.159589
-0.0085264
0.72086
1.60769
-1.11361
-0.277119
-1.81036
-0.940172
-1.17287
-0.997765
-0.964487
-0.889768
-0.836868
-0.790252
-0.753867
-0.724995
-0.702206
-0.684072
-0.66961
-0.658185
-0.649372
-0.642903
-0.638254
-0.634927
-0.630341
-0.623127
-0.60027
-0.565195
-0.456164
-0.349958
0.0338535
0.175288
1.00409
1.48897
-0.284103
-0.352595
-1.83255
-0.998311
-1.19913
-1.03327
-0.993254
-0.918628
-0.861835
-0.811288
-0.769971
-0.736006
-0.707992
-0.684624
-0.664863
-0.647975
-0.63337
-0.620547
-0.608652
-0.596688
-0.581438
-0.56049
-0.520047
-0.462044
-0.326096
-0.190232
0.222609
0.352663
1.25819
1.39426
0.480237
-0.438205
-1.85772
-1.06104
-1.22916
-1.07117
-1.02361
-0.948418
-0.887597
-0.83304
-0.786743
-0.747549
-0.714096
-0.685195
-0.65976
-0.636959
-0.616035
-0.596236
-0.576371
-0.55494
-0.528121
-0.492577
-0.433992
-0.353246
-0.192147
-0.0298619
0.404521
0.522257
1.48641
1.32163
1.18276
-0.534557
-1.88617
-1.12857
-1.26328
-1.11189
-1.05602
-0.979502
-0.914396
-0.855656
-0.804271
-0.759688
-0.720573
-0.685841
-0.654367
-0.62522
-0.597468
-0.57011
-0.541613
-0.509992
-0.470878
-0.420154
-0.343271
-0.240463
-0.0563939
0.128844
0.578121
0.683474
1.69174
1.2689
1.82672
-0.642217
-1.91821
-1.2011
-1.30175
-1.15581
-1.0909
-1.01224
-0.942493
-0.879313
-0.822673
-0.77251
-0.727498
-0.686642
-0.648772
-0.612862
-0.577807
-0.542354
-0.504639
-0.462226
-0.41028
-0.34407
-0.249087
-0.125295
0.0793113
0.284033
0.74253
0.836202
1.8768
1.23381
2.41531
-0.761703
-1.95412
-1.27883
-1.34485
-1.20324
-1.12862
-1.04697
-0.972155
-0.904203
-0.842087
-0.786122
-0.734965
-0.687689
-0.643081
-0.600015
-0.557216
-0.513187
-0.465756
-0.412081
-0.346958
-0.265214
-0.152636
-0.00922912
0.21338
0.43429
0.897331
0.980602
2.0438
1.21413
2.95166
-0.893465
-1.99417
-1.36194
-1.39282
-1.25446
-1.16952
-1.08403
-1.00365
-0.930531
-0.862665
-0.800643
-0.74308
-0.689092
-0.637416
-0.586827
-0.535885
-0.482864
-0.425311
-0.360039
-0.281576
-0.184481
-0.055055
0.106403
0.344501
0.578591
1.04245
1.11697
2.19458
1.20769
3.43884
-1.03788
-2.0386
-1.45058
-1.44588
-1.3097
-1.21389
-1.1237
-1.03723
-0.958502
-0.884569
-0.816206
-0.751964
-0.690972
-0.631913
-0.573463
-0.514025
-0.451663
-0.383677
-0.306604
-0.214809
-0.102742
0.0425991
0.220445
0.471627
0.716241
1.17803
1.24562
2.33066
1.21253
3.87986
-1.19521
-2.08763
-1.54485
-1.50424
-1.36916
-1.26197
-1.16624
-1.07313
-0.988315
-0.907962
-0.83295
-0.761741
-0.693457
-0.626718
-0.560099
-0.49186
-0.419876
-0.341244
-0.252291
-0.147321
-0.0208195
0.139378
0.331918
0.593957
0.846812
1.30439
1.36686
2.45333
1.22684
4.27762
-1.36563
-2.14144
-1.64481
-1.56805
-1.43299
-1.31397
-1.21188
-1.11156
-1.02016
-0.933001
-0.851011
-0.772543
-0.696684
-0.621984
-0.546923
-0.469627
-0.387808
-0.298405
-0.197605
-0.0797462
0.0605276
0.234449
0.440023
0.710907
0.970081
1.42189
1.48096
2.56365
1.24902
4.63496
-1.54915
-2.20018
-1.75044
-1.63744
-1.50131
-1.37004
-1.26079
-1.15272
-1.0542
-0.959835
-0.870526
-0.784499
-0.700787
-0.617866
-0.534122
-0.447562
-0.355764
-0.255551
-0.143038
-0.0126801
0.140619
0.327102
0.544123
0.822073
1.08598
1.53092
1.58814
2.66259
1.27768
4.95461
-1.74566
-2.26393
-1.86167
-1.71247
-1.5742
-1.43028
-1.31314
-1.19673
-1.09058
-0.988598
-0.891617
-0.79773
-0.705899
-0.614519
-0.521885
-0.425902
-0.324042
-0.213057
-0.0890493
0.0533343
0.218855
0.416745
0.643731
0.927201
1.19455
1.6319
1.6886
2.751
1.31159
5.23918
-1.95484
-2.33274
-1.97834
-1.79315
-1.65167
-1.49476
-1.369
-1.24373
-1.12943
-1.0194
-0.914396
-0.812353
-0.712147
-0.612091
-0.510394
-0.404875
-0.29293
-0.171277
-0.0360652
0.117812
0.294724
0.502898
0.738491
1.02616
1.29591
1.72522
1.7825
2.82967
1.3497
5.49116
-2.17622
-2.40659
-2.10023
-1.87941
-1.73369
-1.56349
-1.42843
-1.29378
-1.17082
-1.05234
-0.938956
-0.828465
-0.719644
-0.610719
-0.499821
-0.384698
-0.262695
-0.130538
0.0155309
0.180327
0.367795
0.585187
0.828158
1.1189
1.39023
1.81125
1.87003
2.89935
1.39108
5.71294
-2.40909
-2.4854
-2.22701
-1.97111
-1.82015
-1.6364
-1.49142
-1.3469
-1.21481
-1.08747
-0.965366
-0.84615
-0.728491
-0.610529
-0.490325
-0.36557
-0.233585
-0.0911372
0.0654007
0.240519
0.43772
0.663328
0.912582
1.20547
1.47772
1.89036
1.95136
2.96073
1.43497
5.90677
-2.65256
-2.56901
-2.3583
-2.06804
-1.91089
-1.71338
-1.55792
-1.40308
-1.26139
-1.12481
-0.993671
-0.865469
-0.738769
-0.611629
-0.482045
-0.347669
-0.20582
-0.0533338
0.113253
0.298086
0.504224
0.737125
0.991692
1.28596
1.55861
1.96288
2.02669
3.01449
1.48067
6.07477
-2.90553
-2.65716
-2.49359
-2.16987
-2.00567
-1.79426
-1.6278
-1.46224
-1.31055
-1.16437
-1.02389
-0.886458
-0.750538
-0.614107
-0.475101
-0.331149
-0.179589
-0.0173511
0.158844
0.352788
0.567103
0.806451
1.06548
1.36049
1.63314
2.02915
2.09622
3.06126
1.5276
6.21896
-3.16666
-2.74952
-2.63232
-2.27621
-2.10418
-1.87878
-1.70089
-1.52426
-1.36219
-1.2061
-1.05599
-0.909127
-0.763835
-0.618026
-0.469589
-0.31614
-0.155055
0.016626
0.201979
0.404439
0.626216
0.871245
1.134
1.42925
1.70158
2.0895
2.16018
3.10164
1.57528
6.34121
-3.43443
-2.84569
-2.77381
-2.38657
-2.20602
-1.96662
-1.77695
-1.58895
-1.41619
-1.2499
-1.08994
-0.933455
-0.77867
-0.623428
-0.465579
-0.302743
-0.132343
0.0484515
0.242506
0.452907
0.681476
0.931497
1.19734
1.49242
1.7642
2.14426
2.21882
3.13621
1.62329
6.4433
-3.70714
-2.94514
-2.91734
-2.50038
-2.31073
-2.0574
-1.85568
-1.65609
-1.47237
-1.29565
-1.12565
-0.959392
-0.795023
-0.630325
-0.463117
-0.291028
-0.111548
0.0780174
0.280319
0.49811
0.73285
0.987247
1.25564
1.55023
1.82127
2.19374
2.27239
3.16548
1.67125
6.52685
-3.98293
-3.0473
-3.06209
-2.61698
-2.41776
-2.15066
-1.93672
-1.72538
-1.53051
-1.34319
-1.16298
-0.986853
-0.812849
-0.638704
-0.462216
-0.281038
-0.0927325
0.105253
0.315354
0.540006
0.780345
1.03857
1.30904
1.60289
1.87309
2.23825
2.32115
3.18996
1.71888
6.59339
-4.25979
-3.1515
-3.20718
-2.73563
-2.52652
-2.24589
-2.01964
-1.79648
-1.59035
-1.3923
-1.20179
-1.01572
-0.832069
-0.64852
-0.462865
-0.272785
-0.0759251
0.130122
0.347583
0.578598
0.82401
1.08558
1.35773
1.65066
1.91992
2.2781
2.36537
3.21011
1.76594
6.64435
-4.53564
-3.257
-3.35168
-2.85552
-2.63632
-2.3425
-2.10396
-1.869
-1.65155
-1.44272
-1.24187
-1.04585
-0.852576
-0.659704
-0.465022
-0.266252
-0.0611241
0.152623
0.377017
0.613921
0.863926
1.12841
1.40191
1.69378
1.96206
2.31361
2.40531
3.22635
1.81221
6.68102
-4.80832
-3.36305
-3.49463
-2.97581
-2.74645
-2.43986
-2.18917
-1.9425
-1.71377
-1.49418
-1.283
-1.07706
-0.874234
-0.672155
-0.468619
-0.261394
-0.0482976
0.172786
0.403695
0.646044
0.900202
1.16723
1.44178
1.73251
1.99979
2.34505
2.44125
3.23908
1.85753
6.7046
-5.07567
-3.46881
-3.63505
-3.09559
-2.85613
-2.5373
-2.27467
-2.0165
-1.7766
-1.54633
-1.32491
-1.10914
-0.896877
-0.685748
-0.473561
-0.258137
-0.0373859
0.19067
0.427689
0.675063
0.932972
1.2022
1.47759
1.76711
2.0334
2.37272
2.47344
3.24866
1.9018
6.71621
-5.33555
-3.57344
-3.77195
-3.21394
-2.96457
-2.6341
-2.35988
-2.09047
-1.83961
-1.59883
-1.3673
-1.14185
-0.920316
-0.700331
-0.479727
-0.256384
-0.0283032
0.206358
0.449095
0.701098
0.96239
1.23354
1.50955
1.79784
2.06315
2.39689
2.50215
3.25541
1.94491
6.71691
-5.58586
-3.67612
-3.90437
-3.32993
-3.07095
-2.72954
-2.44416
-2.16388
-1.90234
-1.65128
-1.40985
-1.17493
-0.944335
-0.715728
-0.486973
-0.256012
-0.02094
0.21996
0.468032
0.724289
0.988625
1.26142
1.5379
1.82495
2.08932
2.41783
2.52761
3.25963
1.98672
6.70735
-5.82461
-3.77602
-4.03136
-3.44264
-3.17446
-2.82287
-2.52684
-2.23616
-1.9643
-1.70327
-1.45222
-1.20809
-0.968696
-0.731743
-0.495135
-0.25688
-0.0151657
0.231604
0.484637
0.744792
1.01186
1.28608
1.56288
1.84869
2.11218
2.43579
2.55007
3.26163
2.02747
6.68838
-6.04995
-3.87234
-4.15203
-3.55115
-3.27429
-2.91335
-2.60728
-2.30672
-2.02499
-1.75438
-1.49406
-1.24103
-0.993146
-0.748161
-0.504029
-0.258826
-0.0108311
0.241438
0.499067
0.76278
1.03229
1.30772
1.58472
1.86931
2.13197
2.45101
2.56976
3.26157
2.06694
6.66096
-6.26018
-3.96433
-4.26555
-3.65463
-3.36966
-3.00025
-2.68483
-2.375
-2.08392
-1.80418
-1.53498
-1.27342
-1.01741
-0.764753
-0.513455
-0.261672
-0.00777098
0.249624
0.511488
0.778433
1.05011
1.32656
1.60366
1.88706
2.14894
2.46372
2.58689
3.25974
2.1051
6.62565
-6.45375
-4.05131
-4.37118
-3.75226
-3.45982
-3.08287
-2.75884
-2.44042
-2.14057
-1.85222
-1.57461
-1.30495
-1.04122
-0.781276
-0.523203
-0.265228
-0.0058074
0.256337
0.522081
0.791942
1.06553
1.34283
1.61993
1.90217
2.16332
2.47413
2.60167
3.25632
2.14202
6.58301
-6.62916
-4.13261
-4.46824
-3.8433
-3.5441
-3.16056
-2.82871
-2.50242
-2.19445
-1.89806
-1.61256
-1.33528
-1.06427
-0.79748
-0.53305
-0.269293
-0.004752
0.26176
0.531032
0.803502
1.07876
1.35673
1.63375
1.91486
2.17534
2.48245
2.61429
3.25148
2.17775
6.53355
-6.78523
-4.20784
-4.55617
-3.9271
-3.62185
-3.23269
-2.89387
-2.56048
-2.24509
-1.94128
-1.64845
-1.36408
-1.08629
-0.813109
-0.542768
-0.27366
-0.00440912
0.266084
0.538534
0.813311
1.09
1.36849
1.64535
1.92534
2.1852
2.48885
2.62494
3.24537
2.21234
6.47769
-6.92126
-4.27639
-4.63443
-4.00312
-3.69254
-3.29873
-2.95378
-2.6141
-2.29202
-1.98146
-1.68193
-1.39103
-1.10698
-0.827906
-0.552127
-0.278115
-0.00457845
0.269504
0.544781
0.821568
1.09945
1.37831
1.65493
1.93383
2.1931
2.49353
2.63378
3.23813
2.24586
6.41582
-7.03654
-4.33794
-4.70272
-4.07084
-3.75567
-3.35817
-3.00797
-2.66283
-2.33482
-2.01823
-1.71263
-1.4158
-1.12605
-0.841617
-0.560895
-0.282446
-0.00505784
0.272217
0.549968
0.828471
1.10732
1.38639
1.6627
1.94052
2.19923
2.49665
2.64099
3.22987
2.2784
6.34824
-7.13058
-4.39224
-4.76074
-4.1299
-3.81087
-3.41061
-3.05603
-2.70626
-2.37311
-2.05121
-1.74023
-1.4381
-1.14324
-0.853993
-0.568844
-0.28644
-0.00564578
0.274418
0.554291
0.834215
1.1138
1.39294
1.66884
1.94559
2.20377
2.49834
2.6467
3.2207
2.31005
6.27522
-7.20308
-4.43911
-4.80833
-4.18003
-3.85782
-3.45571
-3.0976
-2.74403
-2.40653
-2.08007
-1.76441
-1.45764
-1.15828
-0.864794
-0.575752
-0.289889
-0.00614398
0.2763
0.557938
0.838988
1.11908
1.39813
1.67355
1.94922
2.20688
2.49877
2.65106
3.21068
2.34091
6.19695
-7.25396
-4.47849
-4.8454
-4.22104
-3.89629
-3.49319
-3.13239
-2.77585
-2.4348
-2.10453
-1.7849
-1.47415
-1.17093
-0.873791
-0.581406
-0.292592
-0.00635957
0.27805
0.561096
0.842976
1.12335
1.40216
1.67699
1.95157
2.20871
2.49805
2.6542
3.19991
2.37109
6.11362
-7.28329
-4.51038
-4.87199
-4.25285
-3.92617
-3.52288
-3.16018
-2.80147
-2.45765
-2.12432
-1.80145
-1.48741
-1.18096
-0.88077
-0.585603
-0.294356
-0.00610727
0.279849
0.56394
0.846353
1.12678
1.40518
1.67933
1.95279
2.2094
2.4963
2.65625
3.18842
2.4007
6.02532
-7.29132
-4.53488
-4.88819
-4.27546
-3.94738
-3.54466
-3.18081
-2.8207
-2.47487
-2.13924
-1.81383
-1.49718
-1.18816
-0.885533
-0.588155
-0.295
-0.00521135
0.281869
0.566641
0.849285
1.12953
1.40735
1.68072
1.95303
2.20909
2.49365
2.6573
3.17627
2.42989
5.93215
-7.27845
-4.55218
-4.89419
-4.28895
-3.95996
-3.5585
-3.1942
-2.83342
-2.48631
-2.1491
-1.82187
-1.5033
-1.19236
-0.887902
-0.588887
-0.294355
-0.00350726
0.284271
0.569357
0.85193
1.13176
1.40883
1.68131
1.95241
2.20791
2.49018
2.65748
3.16349
2.45877
5.83415
-7.2452
-4.56254
-4.89026
-4.29351
-3.96401
-3.56442
-3.20032
-2.83954
-2.49187
-2.15378
-1.82542
-1.5056
-1.19338
-0.887717
-0.587642
-0.292266
-0.000843262
0.287204
0.572236
0.854433
1.1336
1.40976
1.68123
1.95107
2.20595
2.48599
2.65687
3.15011
2.48748
5.73134
-7.19223
-4.56627
-4.87672
-4.28937
-3.9597
-3.56252
-3.19919
-2.83905
-2.49147
-2.15317
-1.82436
-1.50395
-1.1911
-0.88484
-0.584281
-0.288595
0.0029183
0.290804
0.575412
0.856926
1.13519
1.41025
1.68058
1.9491
2.20333
2.48117
2.65558
3.13615
2.51615
5.6237
-7.12033
-4.56377
-4.85397
-4.27682
-3.94724
-3.55294
-3.19091
-2.83197
-2.48509
-2.14722
-1.81861
-1.49825
-1.1854
-0.879152
-0.578684
-0.28322
0.00789992
0.295195
0.579008
0.85953
1.13664
1.41043
1.6795
1.94662
2.20014
2.4758
2.65369
3.12163
2.54494
5.51121
-7.03037
-4.5555
-4.82245
-4.25624
-3.92691
-3.53588
-3.17558
-2.81836
-2.47274
-2.13591
-1.80811
-1.48844
-1.17619
-0.870559
-0.570748
-0.276035
0.0142079
0.300483
0.583129
0.862352
1.13807
1.4104
1.67807
1.94372
2.19648
2.46995
2.65128
3.10657
2.57399
5.39384
-6.92335
-4.54194
-4.78265
-4.22802
-3.89903
-3.51157
-3.15337
-2.79833
-2.45449
-2.11924
-1.79284
-1.47445
-1.16342
-0.858984
-0.560393
-0.266955
0.0219314
0.306759
0.58787
0.865484
1.13956
1.41024
1.67638
1.94048
2.19242
2.4637
2.64843
3.09097
2.60343
5.27155
-6.80035
-4.52364
-4.73511
-4.1926
-3.86394
-3.48028
-3.12448
-2.77199
-2.43039
-2.09725
-1.7728
-1.45627
-1.14704
-0.844374
-0.547554
-0.255912
0.0311423
0.314097
0.593304
0.869002
1.14119
1.41003
1.67452
1.93698
2.18804
2.45713
2.64524
3.07487
2.63339
5.14432
-6.66258
-4.50117
-4.68038
-4.15044
-3.82201
-3.4423
-3.08911
-2.7395
-2.40054
-2.06998
-1.74802
-1.4339
-1.12703
-0.826695
-0.53219
-0.242856
0.0418938
0.322553
0.59949
0.872967
1.14302
1.40985
1.67254
1.93329
2.18342
2.45029
2.64176
3.05831
2.66401
5.01218
-6.51136
-4.47513
-4.61907
-4.10201
-3.77363
-3.3979
-3.04748
-2.70101
-2.36506
-2.03751
-1.71852
-1.40735
-1.10339
-0.80593
-0.514275
-0.227757
0.0542205
0.332166
0.606469
0.877422
1.14511
1.40973
1.6705
1.92946
2.17861
2.44326
2.63809
3.04132
2.69538
4.87522
-6.34814
-4.44611
-4.55178
-4.04776
-3.71915
-3.34737
-2.99981
-2.65669
-2.32405
-1.99992
-1.68436
-1.37664
-1.07612
-0.782083
-0.493805
-0.210604
0.0681375
0.342953
0.614263
0.88239
1.14746
1.40971
1.66844
1.92555
2.17368
2.4361
2.63431
3.024
2.72757
4.73367
-6.17454
-4.41464
-4.47909
-3.98814
-3.65892
-3.29099
-2.9463
-2.60667
-2.27764
-1.95728
-1.6456
-1.34182
-1.04526
-0.755172
-0.470792
-0.191405
0.0836401
0.354912
0.622871
0.887878
1.15011
1.40981
1.66639
1.92159
2.16868
2.4289
2.6305
3.00646
2.76061
4.58794
-5.99238
-4.38116
-4.4016
-3.92351
-3.59325
-3.22897
-2.88712
-2.55111
-2.22591
-1.90968
-1.60229
-1.30293
-1.01085
-0.725232
-0.445266
-0.170188
0.100703
0.368022
0.632275
0.893869
1.15303
1.41003
1.66436
1.91761
2.16366
2.42171
2.62673
2.98887
2.79444
4.43877
-5.80373
-4.34592
-4.31984
-3.85419
-3.52239
-3.1615
-2.82241
-2.4901
-2.16896
-1.85718
-1.55451
-1.26004
-0.972941
-0.69231
-0.417274
-0.146998
0.119281
0.382236
0.642431
0.900323
1.15619
1.41033
1.66233
1.91361
2.15864
2.41462
2.6231
2.97146
2.82888
4.28742
-5.61105
-4.30888
-4.23431
-3.78042
-3.44655
-3.08875
-2.75232
-2.42377
-2.10688
-1.79988
-1.50233
-1.21322
-0.931609
-0.656489
-0.386897
-0.121916
0.139295
0.39748
0.653267
0.907173
1.15953
1.41068
1.66028
1.9096
2.15366
2.40768
2.61969
2.95451
2.86353
4.13588
-5.4171
-4.2696
-4.14548
-3.70245
-3.36599
-3.01093
-2.67703
-2.35229
-2.03986
-1.73795
-1.44593
-1.16264
-0.887016
-0.61792
-0.35428
-0.0950779
0.160617
0.413633
0.664674
0.914321
1.16297
1.411
1.65815
1.90554
2.14873
2.40098
2.61659
2.93836
2.89783
3.98719
-5.22371
-4.22592
-4.05287
-3.61966
-3.28008
-2.92744
-2.59598
-2.27515
-1.96744
-1.67101
-1.38497
-1.10804
-0.838956
-0.576453
-0.319322
-0.0664291
0.183263
0.430676
0.6766
0.921693
1.16642
1.4112
1.65585
1.90136
2.14382
2.39452
2.61392
2.92335
2.93072
3.84589
-5.03281
-4.1697
-3.95421
-3.52864
-3.18562
-2.83505
-2.50606
-2.18942
-1.88691
-1.59658
-1.31728
-1.04751
-0.785801
-0.53073
-0.280928
-0.0351217
0.207848
0.449014
0.689265
0.929344
1.1698
1.4111
1.65315
1.8968
2.13868
2.38825
2.61149
2.91057
2.95799
3.72164
-4.86248
-4.08636
-3.85622
-3.42835
-3.08388
-2.73402
-2.40764
-2.09527
-1.79839
-1.51474
-1.24291
-0.981106
-0.727663
-0.480932
-0.239365
-0.00152516
0.233894
0.468056
0.701967
0.936476
1.17222
1.40974
1.64902
1.89094
2.1321
2.38192
2.60633
2.90575
2.9626
3.63857
64.5494
-48.1789
35.2271
-2.16974
10.4885
6.52311
7.62689
7.22408
7.27958
7.20912
7.17954
7.14258
7.11031
7.07865
7.04792
7.01738
6.98664
6.95496
6.92267
6.88568
6.85605
6.78554
6.84098
6.43785
7.54262
3.57218
16.2491
-21.2105
62.3552
-50.6081
54.8015
-31.9789
24.3308
2.45253
9.06114
6.97182
7.52563
7.27356
7.28252
7.22126
7.18636
7.14826
7.11409
7.08089
7.04865
7.01663
6.98438
6.95115
6.91695
6.87882
6.84386
6.78254
6.7914
6.53916
7.09324
5.0017
11.619
-10.2927
46.1185
-40.84
48.952
-22.1695
19.12
4.14673
8.67079
7.11131
7.51077
7.29923
7.29111
7.23142
7.19317
7.15355
7.11767
7.08299
7.04933
7.01592
6.98225
6.94755
6.91163
6.87196
6.83365
6.77388
6.76565
6.55395
6.95352
5.39253
9.92219
-5.07274
36.2864
-34.9782
44.1175
-15.358
16.1474
5.04277
8.45579
7.21346
7.50443
7.32307
7.3001
7.24133
7.19983
7.1587
7.12112
7.08502
7.04999
7.01524
6.98019
6.94406
6.90645
6.86526
6.82369
6.76484
6.74172
6.56023
6.85117
5.60777
9.02467
-2.09568
29.4591
-30.1333
39.802
-10.2941
14.3174
5.59593
8.33207
7.28925
7.50545
7.34523
7.30991
7.25117
7.20654
7.16382
7.12455
7.08703
7.05063
7.01457
6.97816
6.94061
6.90129
6.85851
6.81379
6.75496
6.71947
6.55912
6.7752
5.73153
8.47033
-0.263549
24.3833
-25.8085
36.0042
-6.54584
13.1914
5.99152
8.25068
7.35763
7.50893
7.36659
7.32023
7.26094
7.21325
7.16888
7.12792
7.089
7.05127
7.01392
6.97617
6.93722
6.8962
6.85175
6.80397
6.74457
6.69801
6.55554
6.70659
5.8128
8.07359
0.863152
20.6263
-22.0024
32.6631
-3.81851
12.4932
6.31418
8.19538
7.42327
7.51529
7.38687
7.33085
7.27048
7.21985
7.17378
7.13117
7.09089
7.05188
7.0133
6.97426
6.93394
6.89127
6.84511
6.79436
6.73386
6.67762
6.54903
6.64067
5.86784
7.7497
1.56129
17.8927
-18.654
29.7032
-1.84543
12.0109
6.60799
8.15563
7.48832
7.52476
7.40621
7.34151
7.27964
7.22619
7.17842
7.13423
7.09266
7.05245
7.01272
6.97248
6.93086
6.8866
6.83873
6.78513
6.72311
6.65814
6.53938
6.57527
5.90719
7.45459
2.04329
15.9152
-15.6876
27.0621
-0.413356
11.6085
6.88228
8.12566
7.55174
7.53727
7.42467
7.35196
7.28824
7.2321
7.18267
7.13701
7.09425
7.05296
7.0122
6.97088
6.92806
6.88231
6.83277
6.77646
6.71255
6.63952
6.52664
6.51144
5.93667
7.179
2.44547
14.4799
-13.0408
24.6891
0.638703
11.2097
7.12901
8.09999
7.61079
7.55187
7.44208
7.36189
7.29605
7.23739
7.1864
7.13941
7.09561
7.05339
7.01176
6.96951
6.92564
6.87855
6.82742
6.76857
6.7025
6.62194
6.51177
6.45193
5.96177
6.93101
2.8441
13.4255
-10.6627
22.5427
1.4293
10.7795
7.33488
8.07244
7.66177
7.56664
7.45785
7.37083
7.30277
7.24182
7.18943
7.14132
7.09667
7.05373
7.01142
6.96845
6.92373
6.8755
6.82294
6.76177
6.69342
6.60597
6.49669
6.40047
5.98872
6.72402
3.27436
12.6332
-8.51172
20.5889
2.04337
10.3092
7.48812
8.03641
7.70062
7.57892
7.47094
7.37813
7.30798
7.24509
7.19155
7.14259
7.09735
7.05395
7.01121
6.96777
6.92245
6.87335
6.81962
6.75647
6.68598
6.59266
6.48406
6.36111
6.02415
6.56984
3.74501
12.0179
-6.55374
18.8003
2.53959
9.80534
7.58173
7.98578
7.7235
7.58566
7.4799
7.3829
7.31117
7.24685
7.19252
7.14307
7.09757
7.05401
7.01117
6.96756
6.92197
6.87236
6.81781
6.75319
6.68106
6.58345
6.47697
6.33774
6.07421
6.47549
4.24931
11.5206
-4.76131
17.155
2.95672
9.28214
7.61432
7.91576
7.72716
7.58379
7.48305
7.38409
7.31171
7.24668
7.19208
7.14258
7.09722
7.05389
7.01131
6.96793
6.92245
6.87278
6.81793
6.75255
6.67971
6.58006
6.47847
6.33361
6.14374
6.44235
4.77308
11.1027
-3.1125
15.6358
3.31903
8.75582
7.58956
7.82343
7.70931
7.57059
7.4786
7.38054
7.30888
7.24412
7.18993
7.14094
7.0962
7.05356
7.01168
6.96898
6.92411
6.87492
6.82044
6.75528
6.68309
6.58426
6.49132
6.35104
6.23565
6.46677
5.30004
10.7397
-1.59001
14.229
3.64065
8.2413
7.51479
7.70804
7.66877
7.54393
7.46494
7.37109
7.30193
7.23867
7.18573
7.13794
7.0944
7.05297
7.01231
6.97082
6.92713
6.87911
6.82585
6.76213
6.69238
6.59769
6.51766
6.39121
6.35071
6.54137
5.81524
10.4176
-0.180221
12.924
3.92909
7.75044
7.3995
7.5708
7.60557
7.50244
7.44074
7.35466
7.29013
7.22983
7.17916
7.13337
7.0917
7.05209
7.01324
6.97356
6.93173
6.88568
6.83465
6.77385
6.70866
6.62166
6.55886
6.45412
6.48772
6.65665
6.30677
10.1288
1.12756
11.7125
4.18784
7.29143
7.25387
7.41455
7.52086
7.44557
7.40512
7.33039
7.27282
7.21714
7.16992
7.12703
7.08799
7.05089
7.0145
6.97732
6.9381
6.89493
6.84731
6.79109
6.73279
6.65709
6.61548
6.53861
6.64384
6.80241
6.76646
9.86976
2.34175
10.5876
4.41827
6.86889
7.08764
7.24321
7.41672
7.37359
7.35767
7.29767
7.24945
7.20018
7.15771
7.11874
7.08317
7.04933
7.01613
6.9822
6.94643
6.90716
6.86425
6.81438
6.76538
6.70436
6.68726
6.64259
6.81515
6.96887
7.18965
9.63922
3.46912
9.54377
4.62086
6.48447
6.90939
7.06125
7.29599
7.28748
7.29853
7.25623
7.21969
7.17865
7.1423
7.10834
7.07715
7.04738
7.01816
6.98829
6.95688
6.92259
6.88576
6.84408
6.80672
6.76336
6.77321
6.76324
6.99717
7.14744
7.57471
9.43664
4.5152
8.57643
4.79598
6.13754
6.7261
6.87319
7.16191
7.18881
7.2283
7.20611
7.18339
7.15236
7.12353
7.09572
7.06986
7.04502
7.0206
6.99566
6.96956
6.94139
6.91206
6.88034
6.85676
6.83349
6.87179
6.89732
7.18536
7.33113
7.92227
9.26164
5.48465
7.68144
4.94431
5.82596
6.54306
6.68324
7.01791
7.07952
7.14796
7.14767
7.1406
7.12124
7.10132
7.0808
7.06125
7.04224
7.02348
7.00434
6.98455
6.96364
6.94318
6.9231
6.91514
6.91376
6.98103
7.04139
7.37552
7.51462
8.23447
9.11355
6.38159
6.85507
5.06699
5.54677
6.364
6.49501
6.86734
6.96183
7.05885
7.08156
7.09161
7.08538
7.07567
7.06356
7.05131
7.03901
7.02679
7.01437
7.00185
6.98933
6.97905
6.97208
6.98121
7.00284
7.09873
7.19208
7.56403
7.69419
8.51427
8.9912
7.20973
6.09385
5.16561
5.29666
6.1913
6.31139
6.71332
6.83799
6.96247
7.00865
7.03687
7.04501
7.04667
7.04404
7.04004
7.03536
7.03053
7.02571
7.02143
7.01837
7.01944
7.02681
7.0541
7.09922
7.22263
7.34629
7.74797
7.86744
8.76498
8.893
7.97258
5.39442
5.2421
5.07239
6.0263
6.13455
6.5586
6.71025
6.86046
6.92999
6.97699
7.00045
7.01451
7.02233
7.02749
7.03128
7.03469
7.03833
7.0432
7.05057
7.06402
7.0867
7.13278
7.20128
7.35048
7.50126
7.9252
8.03302
8.98986
8.817
8.67347
4.75354
5.29863
4.87096
5.86962
5.96595
6.40548
6.58066
6.75445
6.84669
6.91271
6.95215
6.97945
6.99857
7.01373
7.02679
7.03924
7.05215
7.06701
7.08567
7.11234
7.151
7.2161
7.30736
7.48023
7.65468
8.09422
8.19031
9.19188
8.761
9.31566
4.16802
5.33747
4.68976
5.72135
5.80647
6.25581
6.45105
6.64602
6.75994
6.84483
6.90064
6.9418
6.97295
6.99885
7.02193
7.04415
7.06707
7.09267
7.12335
7.16387
7.2189
7.3029
7.41589
7.61003
7.8047
8.25416
8.3392
9.37366
8.72273
9.90234
3.63473
5.36087
4.52658
5.58134
5.65653
6.11098
6.32302
6.53665
6.67091
6.77421
6.8465
6.90195
6.9457
6.98299
7.01673
7.04938
7.08297
7.11994
7.16322
7.21804
7.28956
7.392
7.5254
7.7383
7.9499
8.40459
8.47984
9.53741
8.69993
10.4366
3.15061
5.37098
4.37959
5.4493
5.51619
5.97203
6.19785
6.42763
6.58069
6.7017
6.79033
6.8603
6.91709
6.96627
7.01124
7.05488
7.0997
7.14856
7.20487
7.27422
7.36211
7.4823
7.63457
7.86374
8.08926
8.54543
8.61251
9.68496
8.69044
10.9216
2.71266
5.36978
4.24725
5.32491
5.38531
5.83963
6.07658
6.32011
6.49032
6.62812
6.73275
6.81729
6.88737
6.94884
7.00549
7.06061
7.1171
7.17825
7.24787
7.3318
7.43572
7.57276
7.74227
7.98531
8.22208
8.67682
8.73753
9.81783
8.69225
11.3604
2.31796
5.35908
4.1283
5.20786
5.26358
5.71422
5.95999
6.21505
6.40072
6.55426
6.67437
6.77334
6.85686
6.93088
6.99955
7.0665
7.13501
7.20873
7.29179
7.39018
7.50963
7.66247
7.84754
8.10221
8.34793