/*--------------------------------*- C++ -*----------------------------------*\
| =========                 |                                                 |
| \\      /  F ield         | OpenFOAM: The Open Source CFD Toolbox           |
|  \\    /   O peration     | Version:  2.4.0                                 |
|   \\  /    A nd           | Web:      www.OpenFOAM.org                      |
|    \\/     M anipulation  |                                                 |
\*---------------------------------------------------------------------------*/
FoamFile
{
    version     2.0;
    format      ascii;
    class       surfaceScalarField;
    location    "0.03";
    object      phi;
}
// * * * * * * * * * * * * * * * * * * * * * * * * * * * * * * * * * * * * * //

dimensions      [0 3 -1 0 0 0 0];

internalField   nonuniform List<scalar> 
14230
(
5.85605e-15
-3.892e-14
-1.14576e-13
1.20432e-13
1.17594e-13
-2.32171e-13
-1.30866e-13
2.4846e-13
-2.80128e-14
-1.02854e-13
-9.16893e-14
6.36766e-14
-7.4336e-14
-1.7353e-14
-8.99875e-14
1.56522e-14
-8.91976e-14
-7.8895e-16
-9.15392e-14
2.3425e-15
-9.0155e-14
-1.38363e-15
-8.76286e-14
-2.52611e-15
-8.34113e-14
-4.21722e-15
-7.7984e-14
-5.42735e-15
-7.15227e-14
-6.46143e-15
-6.43059e-14
-7.21678e-15
-5.66026e-14
-7.70316e-15
-4.86468e-14
-7.95534e-15
-4.07471e-14
-7.89874e-15
-3.33081e-14
-7.43713e-15
-2.47496e-14
-8.55555e-15
-2.59608e-14
1.21435e-15
1.12485e-14
-3.72076e-14
-9.80853e-14
1.09332e-13
2.68058e-13
-3.66148e-13
-8.78736e-13
1.14679e-12
2.29507e-12
-3.17382e-12
-3.51847e-12
5.81354e-12
1.70473e-12
-5.22321e-12
3.69997e-12
-1.99524e-12
-5.60178e-14
-1.05794e-13
-2.06143e-13
2.70557e-13
5.33054e-14
-4.91619e-13
-2.10463e-13
5.12229e-13
-1.82955e-13
-1.30362e-13
-2.66374e-13
1.47096e-13
-2.77032e-13
-6.69547e-15
-3.05589e-13
4.42095e-14
-3.1716e-13
1.07828e-14
-3.24673e-13
9.85586e-15
-3.2452e-13
-1.53705e-15
-3.18506e-13
-8.53951e-15
-3.06987e-13
-1.57362e-14
-2.9079e-13
-2.16252e-14
-2.70722e-13
-2.65288e-14
-2.47639e-13
-3.03e-14
-2.22478e-13
-3.28648e-14
-1.96054e-13
-3.43789e-14
-1.69546e-13
-3.44063e-14
-1.43344e-13
-3.36379e-14
-1.18806e-13
-3.30913e-14
-9.94359e-14
-1.81545e-14
-6.41965e-14
-7.24472e-14
-1.22042e-13
1.67175e-13
1.29904e-13
-6.181e-13
-5.23851e-13
1.80053e-12
1.57992e-12
-5.27759e-12
-3.75276e-12
1.11462e-11
1.60287e-12
-1.05788e-11
9.40803e-12
-4.10519e-12
-1.67997e-13
-1.76137e-13
-3.1905e-13
4.2161e-13
-1.09249e-13
-7.01421e-13
-2.78202e-13
6.81181e-13
-3.58112e-13
-5.04521e-14
-4.58782e-13
2.47767e-13
-5.14124e-13
4.86471e-14
-5.60121e-13
9.02063e-14
-5.9013e-13
4.0792e-14
-6.07215e-13
2.6941e-14
-6.11897e-13
3.14421e-15
-6.05034e-13
-1.54024e-14
-5.8784e-13
-3.29306e-14
-5.61502e-13
-4.79628e-14
-5.27454e-13
-6.05773e-14
-4.87171e-13
-7.05827e-14
-4.42296e-13
-7.77398e-14
-3.94372e-13
-8.23031e-14
-3.4543e-13
-8.33484e-14
-2.9623e-13
-8.28376e-14
-2.51162e-13
-7.81586e-14
-2.04628e-13
-6.46867e-14
-1.76796e-13
-1.00277e-13
-1.29504e-13
1.19882e-13
-1.04304e-13
-6.43302e-13
-3.54805e-14
1.73171e-12
-1.18081e-13
-5.195e-12
-2.43894e-12
1.34671e-11
3.97831e-13
-1.34156e-11
1.57758e-11
-5.96991e-12
-3.14927e-13
-2.41851e-13
-4.85951e-13
5.92635e-13
-3.28024e-13
-8.59347e-13
-4.14058e-13
7.67215e-13
-5.4645e-13
8.19396e-14
-6.83771e-13
3.85087e-13
-7.84532e-13
1.49408e-13
-8.58979e-13
1.64653e-13
-9.11711e-13
9.35248e-14
-9.43624e-13
5.88539e-14
-9.56652e-13
1.61716e-14
-9.51757e-13
-2.0297e-14
-9.30614e-13
-5.40739e-14
-8.94895e-13
-8.36823e-14
-8.46616e-13
-1.08856e-13
-7.87935e-13
-1.29263e-13
-7.21241e-13
-1.44434e-13
-6.48955e-13
-1.5459e-13
-5.73889e-13
-1.58415e-13
-4.98084e-13
-1.58643e-13
-4.26261e-13
-1.49981e-13
-3.54762e-13
-1.36183e-13
-3.05763e-13
-1.49273e-13
-2.20594e-13
3.47168e-14
-2.44511e-13
-6.19383e-13
-1.18041e-13
1.60523e-12
-1.0858e-12
-4.22724e-12
-1.60052e-12
1.39818e-11
-1.1111e-12
-1.3905e-11
2.28858e-11
-8.22114e-12
-4.94554e-13
-2.96406e-13
-6.98797e-13
7.96878e-13
-6.0849e-13
-9.49654e-13
-6.31824e-13
7.9055e-13
-7.76948e-13
2.27064e-13
-9.47587e-13
5.55725e-13
-1.09498e-12
2.96806e-13
-1.20539e-12
2.75054e-13
-1.28629e-12
1.74434e-13
-1.33802e-12
1.10579e-13
-1.36327e-12
4.14203e-14
-1.3633e-12
-2.02612e-14
-1.34016e-12
-7.72142e-14
-1.296e-12
-1.27843e-13
-1.23342e-12
-1.71443e-13
-1.15527e-12
-2.07406e-13
-1.06477e-12
-2.34938e-13
-9.65299e-13
-2.54063e-13
-8.60604e-13
-2.6311e-13
-7.54149e-13
-2.65099e-13
-6.51243e-13
-2.52887e-13
-5.51014e-13
-2.3641e-13
-4.75157e-13
-2.25126e-13
-3.71121e-13
-6.93138e-14
-4.44374e-13
-5.46127e-13
-4.10082e-13
1.57095e-12
-1.60803e-12
-3.02929e-12
-1.26687e-12
1.36406e-11
-3.02729e-12
-1.21446e-11
3.06269e-11
-1.07684e-11
-7.04951e-13
-3.35561e-13
-9.51369e-13
1.0433e-12
-9.47123e-13
-9.53901e-13
-9.37569e-13
7.80996e-13
-1.07254e-12
3.62035e-13
-1.26377e-12
7.46954e-13
-1.45404e-12
4.87075e-13
-1.60469e-12
4.25702e-13
-1.71872e-12
2.88471e-13
-1.79504e-12
1.86898e-13
-1.83649e-12
8.28716e-14
-1.84457e-12
-1.21839e-14
-1.82159e-12
-1.00197e-13
-1.77014e-12
-1.79291e-13
-1.69338e-12
-2.48203e-13
-1.59491e-12
-3.05874e-13
-1.47879e-12
-3.51057e-13
-1.34948e-12
-3.83381e-13
-1.21182e-12
-4.00768e-13
-1.07086e-12
-4.06057e-13
-9.33e-13
-3.90748e-13
-8.01063e-13
-3.68345e-13
-6.97703e-13
-3.28482e-13
-5.92187e-13
-1.74824e-13
-7.12425e-13
-4.25884e-13
-7.57135e-13
1.61566e-12
-1.92869e-12
-1.85774e-12
-1.5102e-12
1.32221e-11
-5.35385e-12
-8.30097e-12
3.88516e-11
-1.35785e-11
-9.45413e-13
-3.56893e-13
-1.23844e-12
1.33632e-12
-1.33593e-12
-8.56408e-13
-1.32974e-12
7.74806e-13
-1.44877e-12
4.8106e-13
-1.64728e-12
9.45468e-13
-1.87246e-12
7.12252e-13
-2.06396e-12
6.17198e-13
-2.21466e-12
4.39176e-13
-2.31982e-12
2.92053e-13
-2.38136e-12
1.44417e-13
-2.40068e-12
7.13426e-15
-2.3802e-12
-1.20679e-13
-2.32286e-12
-2.36631e-13
-2.23233e-12
-3.38727e-13
-2.11296e-12
-4.25248e-13
-1.96971e-12
-4.94306e-13
-1.80819e-12
-5.44903e-13
-1.63457e-12
-5.74392e-13
-1.45568e-12
-5.84949e-13
-1.27972e-12
-5.66702e-13
-1.11412e-12
-5.33947e-13
-9.85307e-13
-4.57292e-13
-8.85841e-13
-2.74284e-13
-1.03454e-12
-2.77181e-13
-1.12223e-12
1.70336e-12
-2.27225e-12
-7.07728e-13
-2.38272e-12
1.33326e-11
-8.05779e-12
-2.62591e-12
4.74088e-11
-1.6615e-11
-1.21636e-12
-3.59177e-13
-1.55638e-12
1.67634e-12
-1.76604e-12
-6.4675e-13
-1.80058e-12
8.09346e-13
-1.91312e-12
5.936e-13
-2.11093e-12
1.14328e-12
-2.36169e-12
9.63004e-13
-2.59149e-12
8.47007e-13
-2.78054e-12
6.28224e-13
-2.91791e-12
4.29419e-13
-3.00316e-12
2.29665e-13
-3.03692e-12
4.09038e-14
-3.02146e-12
-1.36139e-13
-2.9599e-12
-2.98191e-13
-2.85637e-12
-4.42265e-13
-2.7159e-12
-5.65716e-13
-2.54443e-12
-6.65772e-13
-2.34882e-12
-7.40515e-13
-2.13676e-12
-7.86454e-13
-1.91718e-12
-8.04535e-13
-1.70083e-12
-7.8305e-13
-1.50049e-12
-7.34289e-13
-1.34754e-12
-6.10234e-13
-1.2527e-12
-3.69122e-13
-1.41028e-12
-1.19596e-13
-1.54884e-12
1.84192e-12
-2.83744e-12
5.80879e-13
-3.89278e-12
1.43879e-11
-1.10965e-11
4.57781e-12
5.6144e-11
-1.98317e-11
-1.51913e-12
-3.41831e-13
-1.90356e-12
2.06077e-12
-2.22957e-12
-3.20742e-13
-2.33873e-12
9.18508e-13
-2.46553e-12
7.20393e-13
-2.6631e-12
1.34086e-12
-2.93198e-12
1.23188e-12
-3.19588e-12
1.11091e-12
-3.42322e-12
8.55565e-13
-3.59516e-12
6.01354e-13
-3.7073e-12
3.41808e-13
-3.75868e-12
9.22855e-14
-3.75094e-12
-1.43884e-13
-3.68715e-12
-3.61975e-13
-3.57178e-12
-5.57636e-13
-3.41054e-12
-7.26954e-13
-3.21036e-12
-8.65953e-13
-2.97944e-12
-9.71432e-13
-2.72724e-12
-1.03866e-12
-2.46512e-12
-1.06666e-12
-2.20704e-12
-1.04112e-12
-1.9715e-12
-9.69831e-13
-1.79478e-12
-7.86953e-13
-1.70123e-12
-4.6267e-13
-1.86849e-12
4.76698e-14
-2.12799e-12
2.10142e-12
-3.7801e-12
2.23299e-12
-6.01278e-12
1.66206e-11
-1.44176e-11
1.29826e-11
6.49051e-11
-2.31786e-11
-1.85572e-12
-3.04454e-13
-2.28028e-12
2.48534e-12
-2.72091e-12
1.19881e-13
-2.93191e-12
1.12951e-12
-3.10007e-12
8.88555e-13
-3.30684e-12
1.54763e-12
-3.59091e-12
1.51595e-12
-3.88489e-12
1.40489e-12
-4.14943e-12
1.1201e-12
-4.3574e-12
8.09322e-13
-4.49918e-12
4.83598e-13
-4.57127e-12
1.64374e-13
-4.57413e-12
-1.41022e-13
-4.51051e-12
-4.25603e-13
-4.38501e-12
-6.8313e-13
-4.20399e-12
-9.07983e-13
-3.97537e-12
-1.09457e-12
-3.70884e-12
-1.23796e-12
-3.41585e-12
-1.33164e-12
-3.11056e-12
-1.37196e-12
-2.81074e-12
-1.34095e-12
-2.54079e-12
-1.23979e-12
-2.34235e-12
-9.85385e-13
-2.25523e-12
-5.49795e-13
-2.46659e-12
2.5904e-13
-2.96867e-12
2.60351e-12
-5.20428e-12
4.4686e-12
-8.68704e-12
2.01034e-11
-1.79615e-11
2.22571e-11
7.35492e-11
-2.66057e-11
-2.22849e-12
-2.46483e-13
-2.68836e-12
2.94521e-12
-3.23714e-12
6.68664e-13
-3.5689e-12
1.46127e-12
-3.80717e-12
1.12682e-12
-4.04014e-12
1.7806e-12
-4.3424e-12
1.81821e-12
-4.66451e-12
1.727e-12
-4.96511e-12
1.4207e-12
-5.21007e-12
1.05429e-12
-5.38394e-12
6.57469e-13
-5.47982e-12
2.6025e-13
-5.49643e-12
-1.24414e-13
-5.4358e-12
-4.8623e-13
-5.30255e-12
-8.16386e-13
-5.10353e-12
-1.107e-12
-4.84775e-12
-1.35035e-12
-4.54648e-12
-1.53922e-12
-4.21348e-12
-1.66465e-12
-3.8661e-12
-1.71933e-12
-3.52657e-12
-1.68048e-12
-3.22593e-12
-1.54043e-12
-3.01407e-12
-1.19724e-12
-2.95566e-12
-6.08198e-13
-3.28097e-12
5.84355e-13
-4.17336e-12
3.49591e-12
-7.16167e-12
7.45692e-12
-1.18396e-11
2.47813e-11
-2.16661e-11
3.20836e-11
8.19477e-11
-3.00646e-11
-2.63994e-12
-1.66976e-13
-3.13064e-12
3.43591e-12
-3.77803e-12
1.31605e-12
-4.24096e-12
1.92421e-12
-4.57581e-12
1.46167e-12
-4.85696e-12
2.06175e-12
-5.18653e-12
2.14778e-12
-5.53824e-12
2.07871e-12
-5.87484e-12
1.7573e-12
-6.15785e-12
1.33729e-12
-6.36618e-12
8.65802e-13
-6.48903e-12
3.83104e-13
-6.52287e-12
-9.0575e-14
-6.46866e-12
-5.4044e-13
-6.33079e-12
-9.5426e-13
-6.11658e-12
-1.32121e-12
-5.83612e-12
-1.6308e-12
-5.50251e-12
-1.87284e-12
-5.13211e-12
-2.03505e-12
-4.74608e-12
-2.10536e-12
-4.37207e-12
-2.05449e-12
-4.0498e-12
-1.8627e-12
-3.84347e-12
-1.40357e-12
-3.85729e-12
-5.94371e-13
-4.39347e-12
1.12053e-12
-5.82096e-12
4.9234e-12
-9.65658e-12
1.12925e-11
-1.53819e-11
3.05066e-11
-2.54693e-11
4.2171e-11
8.99884e-11
-3.351e-11
-3.09256e-12
-6.4502e-14
-3.61052e-12
3.95387e-12
-4.34549e-12
2.05103e-12
-4.9424e-12
2.52112e-12
-5.39539e-12
1.91466e-12
-5.74873e-12
2.41509e-12
-6.11996e-12
2.51901e-12
-6.5068e-12
2.46556e-12
-6.88136e-12
2.13186e-12
-7.20419e-12
1.66013e-12
-7.44967e-12
1.11128e-12
-7.603e-12
5.36436e-13
-7.65803e-12
-3.55502e-14
-7.61434e-12
-5.8413e-13
-7.47592e-12
-1.09268e-12
-7.25049e-12
-1.54664e-12
-6.94935e-12
-1.93194e-12
-6.58762e-12
-2.23458e-12
-6.18479e-12
-2.43787e-12
-5.76669e-12
-2.52347e-12
-5.36805e-12
-2.45313e-12
-5.04084e-12
-2.18992e-12
-4.87233e-12
-1.57207e-12
-5.02157e-12
-4.45131e-13
-5.87793e-12
1.97689e-12
-7.95736e-12
7.00285e-12
-1.26543e-11
1.59895e-11
-1.92202e-11
3.70725e-11
-2.93125e-11
5.22634e-11
9.75771e-11
-3.69012e-11
-3.5886e-12
6.28779e-14
-4.13149e-12
4.49676e-12
-4.94302e-12
2.86256e-12
-5.67068e-12
3.24878e-12
-6.25706e-12
2.50103e-12
-6.70586e-12
2.86389e-12
-7.13667e-12
2.94982e-12
-7.56824e-12
2.89712e-12
-7.98535e-12
2.54897e-12
-8.35114e-12
2.02592e-12
-8.63715e-12
1.39729e-12
-8.82501e-12
7.24288e-13
-8.9058e-12
4.52447e-14
-8.87756e-12
-6.12374e-13
-8.74372e-12
-1.22652e-12
-8.51242e-12
-1.77793e-12
-8.19631e-12
-2.24806e-12
-7.81288e-12
-2.618e-12
-7.38548e-12
-2.86527e-12
-6.94582e-12
-2.96313e-12
-6.53822e-12
-2.86073e-12
-6.2319e-12
-2.49624e-12
-6.14685e-12
-1.65712e-12
-6.50804e-12
-8.39426e-14
-7.78957e-12
3.25843e-12
-1.05927e-11
9.80599e-12
-1.60913e-11
2.14881e-11
-2.32611e-11
4.42423e-11
-3.31419e-11
6.21442e-11
1.04637e-10
-4.02021e-11
-4.1301e-12
2.17575e-13
-4.69687e-12
5.06353e-12
-5.57496e-12
3.74065e-12
-6.42596e-12
4.09978e-12
-7.15445e-12
3.22952e-12
-7.7191e-12
3.42854e-12
-8.22909e-12
3.45981e-12
-8.71832e-12
3.38635e-12
-9.18542e-12
3.01607e-12
-9.59909e-12
2.43959e-12
-9.93009e-12
1.72828e-12
-1.01573e-11
9.51489e-13
-1.02692e-11
1.57185e-13
-1.02623e-11
-6.193e-13
-1.01394e-11
-1.34944e-12
-9.9091e-12
-2.00823e-12
-9.58565e-12
-2.57151e-12
-9.18949e-12
-3.01416e-12
-8.74868e-12
-3.30608e-12
-8.30257e-12
-3.40925e-12
-7.90823e-12
-3.25507e-12
-7.65781e-12
-2.74666e-12
-7.71234e-12
-1.6026e-12
-8.36604e-12
5.69759e-13
-1.01582e-11
5.0506e-12
-1.37036e-11
1.33514e-11
-1.9885e-11
2.76695e-11
-2.74169e-11
5.17742e-11
-3.69097e-11
7.16369e-11
1.11109e-10
-4.33815e-11
-4.71879e-12
4.02405e-13
-5.30957e-12
5.65431e-12
-6.24593e-12
4.67701e-12
-7.21049e-12
5.06433e-12
-8.08385e-12
4.10289e-12
-8.78043e-12
4.12512e-12
-9.38901e-12
4.06839e-12
-9.95119e-12
3.94853e-12
-1.04783e-11
3.54322e-12
-1.09468e-11
2.90804e-12
-1.13286e-11
2.11006e-12
-1.16009e-11
1.22387e-12
-1.17503e-11
3.06581e-13
-1.17717e-11
-5.97975e-13
-1.16673e-11
-1.4538e-12
-1.14465e-11
-2.229e-12
-1.11255e-11
-2.89253e-12
-1.07283e-11
-3.4114e-12
-1.02888e-11
-3.74551e-12
-9.85622e-12
-3.84187e-12
-9.50384e-12
-3.60746e-12
-9.35204e-12
-2.89846e-12
-9.60767e-12
-1.34697e-12
-1.06282e-11
1.59034e-12
-1.29858e-11
7.40812e-12
-1.7239e-11
1.76047e-11
-2.39437e-11
3.43742e-11
-3.1608e-11
5.94384e-11
-4.05744e-11
8.06034e-11
1.16947e-10
-4.64128e-11
-5.35611e-12
6.20515e-13
-5.97201e-12
6.27021e-12
-6.96035e-12
5.66535e-12
-8.02784e-12
6.13182e-12
-9.04402e-12
5.11907e-12
-9.88373e-12
4.96482e-12
-1.06085e-11
4.79319e-12
-1.126e-11
4.59997e-12
-1.18593e-11
4.14259e-12
-1.23914e-11
3.4401e-12
-1.28312e-11
2.54987e-12
-1.31557e-11
1.54839e-12
-1.33499e-11
5.00788e-13
-1.34076e-11
-5.40337e-13
-1.33308e-11
-1.5306e-12
-1.31297e-11
-2.43004e-12
-1.28231e-11
-3.1992e-12
-1.24392e-11
-3.79525e-12
-1.20195e-11
-4.1652e-12
-1.1625e-11
-4.23641e-12
-1.13487e-11
-3.88374e-12
-1.1343e-11
-2.9042e-12
-1.18603e-11
-8.29605e-13
-1.33067e-11
3.0367e-12
-1.62473e-11
1.03487e-11
-2.11274e-11
2.24847e-11
-2.81739e-11
4.14208e-11
-3.57649e-11
6.70294e-11
-4.4101e-11
8.89395e-11
1.2212e-10
-4.92735e-11
-6.04319e-12
8.75321e-13
-6.68605e-12
6.91306e-12
-7.72209e-12
6.70139e-12
-8.88226e-12
7.292e-12
-1.00357e-11
6.2725e-12
-1.10248e-11
5.95397e-12
-1.18806e-11
5.64899e-12
-1.26375e-11
5.3568e-12
-1.33226e-11
4.82768e-12
-1.39287e-11
4.04627e-12
-1.44353e-11
3.05643e-12
-1.48201e-11
1.93322e-12
-1.50676e-11
7.48242e-13
-1.51707e-11
-4.37179e-13
-1.51318e-11
-1.56951e-12
-1.49624e-11
-2.59947e-12
-1.46841e-11
-3.47749e-12
-1.43307e-11
-4.1486e-12
-1.39525e-11
-4.54345e-12
-1.36244e-11
-4.56447e-12
-1.3462e-11
-4.04617e-12
-1.36506e-11
-2.71564e-12
-1.44829e-11
2.75589e-15
-1.63916e-11
4.94535e-12
-1.9895e-11
1.38522e-11
-2.5285e-11
2.78747e-11
-3.24863e-11
4.86221e-11
-3.98288e-11
7.43718e-11
-4.74599e-11
9.65706e-11
1.26605e-10
-5.19447e-11
-6.78091e-12
1.17046e-12
-7.45304e-12
7.58519e-12
-8.53427e-12
7.78262e-12
-9.77801e-12
8.53574e-12
-1.10609e-11
7.55543e-12
-1.22015e-11
7.09455e-12
-1.31995e-11
6.64702e-12
-1.40767e-11
6.23391e-12
-1.48615e-11
5.61248e-12
-1.55534e-11
4.73824e-12
-1.61367e-11
3.63969e-12
-1.65911e-11
2.38764e-12
-1.69013e-11
1.05842e-12
-1.70603e-11
-2.78203e-13
-1.70708e-11
-1.55893e-12
-1.69464e-11
-2.72387e-12
-1.67124e-11
-3.7115e-12
-1.6409e-11
-4.45205e-12
-1.60965e-11
-4.85599e-12
-1.58658e-11
-4.79516e-12
-1.58559e-11
-4.056e-12
-1.62836e-11
-2.28803e-12
-1.74712e-11
1.19035e-12
-1.98522e-11
7.32643e-12
-2.38634e-11
1.78633e-11
-2.96227e-11
3.36341e-11
-3.67996e-11
5.5799e-11
-4.37509e-11
8.13231e-11
-5.06263e-11
1.03446e-10
1.30388e-10
-5.44101e-11
-7.56983e-12
1.50979e-12
-8.27385e-12
8.28922e-12
-9.39923e-12
8.90801e-12
-1.07189e-11
9.85544e-12
-1.21226e-11
8.9591e-12
-1.3413e-11
8.38495e-12
-1.45608e-11
7.79484e-12
-1.5571e-11
7.24409e-12
-1.64692e-11
6.51062e-12
-1.72592e-11
5.52832e-12
-1.79301e-11
4.31055e-12
-1.84643e-11
2.92186e-12
-1.88476e-11
1.44173e-12
-1.90737e-11
-5.21543e-14
-1.91464e-11
-1.48617e-12
-1.90818e-11
-2.78853e-12
-1.89095e-11
-3.88378e-12
-1.8677e-11
-4.6845e-12
-1.84561e-11
-5.0769e-12
-1.83545e-11
-4.8968e-12
-1.85342e-11
-3.87631e-12
-1.9238e-11
-1.58423e-12
-2.08039e-11
2.7563e-12
-2.36404e-11
1.01629e-11
-2.80756e-11
2.22985e-11
-3.40526e-11
3.96111e-11
-4.10428e-11
6.27892e-11
-4.74916e-11
8.77719e-11
-5.35797e-11
1.09534e-10
1.33465e-10
-5.66558e-11
-8.41019e-12
1.89737e-12
-9.14889e-12
9.02791e-12
-1.03185e-11
1.00776e-11
-1.17082e-11
1.12452e-11
-1.32237e-11
1.04746e-11
-1.46597e-11
9.82094e-12
-1.59613e-11
9.09643e-12
-1.71147e-11
8.39753e-12
-1.81387e-11
7.53462e-12
-1.90392e-11
6.42882e-12
-1.98091e-11
5.08039e-12
-2.0434e-11
3.54679e-12
-2.09015e-11
1.90926e-12
-2.12066e-11
2.5296e-13
-2.13551e-11
-1.33773e-12
-2.13658e-11
-2.77784e-12
-2.12737e-11
-3.9759e-12
-2.11342e-11
-4.82393e-12
-2.10312e-11
-5.17996e-12
-2.1089e-11
-4.839e-12
-2.14904e-11
-3.47492e-12
-2.24965e-11
-5.78097e-13
-2.44446e-11
4.70438e-12
-2.76943e-11
1.34127e-11
-3.24493e-11
2.70535e-11
-3.84919e-11
4.56537e-11
-4.51556e-11
6.9453e-11
-5.10189e-11
9.36352e-11
-5.63024e-11
1.14818e-10
1.35832e-10
-5.86697e-11
-9.30187e-12
2.33751e-12
-1.00781e-11
9.80414e-12
-1.12927e-11
1.12922e-11
-1.2748e-11
1.27005e-11
-1.43669e-11
1.20936e-11
-1.59424e-11
1.13964e-11
-1.73986e-11
1.05526e-11
-1.87026e-11
9.70155e-12
-1.98633e-11
8.6953e-12
-2.08859e-11
7.45142e-12
-2.17662e-11
5.96066e-12
-2.2493e-11
4.27362e-12
-2.30563e-11
2.47252e-12
-2.34529e-11
6.49575e-13
-2.3691e-11
-1.09962e-12
-2.37932e-11
-2.67568e-12
-2.38e-11
-3.96908e-12
-2.37755e-11
-4.8484e-12
-2.38155e-11
-5.13997e-12
-2.40599e-11
-4.59457e-12
-2.47079e-11
-2.82693e-12
-2.60292e-11
7.43225e-13
-2.83436e-11
7.01874e-12
-3.19431e-11
1.70121e-11
-3.69018e-11
3.20123e-11
-4.28658e-11
5.16177e-11
-4.90883e-11
7.56754e-11
-5.43071e-11
9.8854e-11
-5.87792e-11
1.1929e-10
1.37493e-10
-6.04407e-11
-1.02443e-11
2.83479e-12
-1.1061e-11
1.06208e-11
-1.23219e-11
1.2553e-11
-1.38396e-11
1.42183e-11
-1.55543e-11
1.38083e-11
-1.72622e-11
1.31043e-11
-1.88711e-11
1.21616e-11
-2.03302e-11
1.11606e-11
-2.16362e-11
1.00014e-11
-2.27915e-11
8.60665e-12
-2.37931e-11
6.96233e-12
-2.4633e-11
5.11346e-12
-2.53035e-11
3.14305e-12
-2.58041e-11
1.1502e-12
-2.61459e-11
-7.57839e-13
-2.63556e-11
-2.46605e-12
-2.64797e-11
-3.84491e-12
-2.65911e-11
-4.73705e-12
-2.67968e-11
-4.93429e-12
-2.72499e-11
-4.14146e-12
-2.81602e-11
-1.91663e-12
-2.97951e-11
2.37818e-12
-3.24417e-11
9.6653e-12
-3.63114e-11
2.08818e-11
-4.13538e-11
3.70546e-11
-4.71094e-11
5.73733e-11
-5.28e-11
8.13661e-11
-5.73349e-11
1.03389e-10
-6.09966e-11
1.22951e-10
1.38455e-10
-6.19587e-11
-1.12364e-11
3.39411e-12
-1.20965e-11
1.1481e-11
-1.34052e-11
1.38617e-11
-1.49833e-11
1.57964e-11
-1.6787e-11
1.5612e-11
-1.86196e-11
1.49368e-11
-2.03773e-11
1.39193e-11
-2.19931e-11
1.27764e-11
-2.34509e-11
1.14591e-11
-2.47476e-11
9.90342e-12
-2.58807e-11
8.09541e-12
-2.68441e-11
6.07688e-12
-2.76331e-11
3.93204e-12
-2.82499e-11
1.76701e-12
-2.8709e-11
-2.98798e-13
-2.90414e-11
-2.13361e-12
-2.93001e-11
-3.58619e-12
-2.9566e-11
-4.47116e-12
-2.99562e-11
-4.5441e-12
-3.06335e-11
-3.4642e-12
-3.18113e-11
-7.38777e-13
-3.37441e-11
4.31093e-12
-3.66733e-11
1.25945e-11
-4.07236e-11
2.49321e-11
-4.5732e-11
4.20631e-11
-5.11669e-11
6.28082e-11
-5.6258e-11
8.64571e-11
-6.00847e-11
1.07216e-10
-6.29424e-11
1.25809e-10
1.38728e-10
-6.32145e-11
-1.22763e-11
4.02076e-12
-1.31831e-11
1.23878e-11
-1.45412e-11
1.52197e-11
-1.61781e-11
1.74333e-11
-1.80651e-11
1.7499e-11
-2.00145e-11
1.68862e-11
-2.19156e-11
1.58203e-11
-2.36872e-11
1.45481e-11
-2.53005e-11
1.30724e-11
-2.67458e-11
1.13487e-11
-2.80189e-11
9.36856e-12
-2.91155e-11
7.17344e-12
-3.00333e-11
4.84986e-12
-3.07777e-11
2.51138e-12
-3.13666e-11
2.90131e-13
-3.18359e-11
-1.66434e-12
-3.22444e-11
-3.17769e-12
-3.26804e-11
-4.03515e-12
-3.32689e-11
-3.95557e-12
-3.41781e-11
-2.55503e-12
-3.56179e-11
7.01045e-13
-3.78195e-11
6.51248e-12
-4.09697e-11
1.57448e-11
-4.51062e-11
2.90686e-11
-4.99713e-11
4.69281e-11
-5.49922e-11
6.78292e-11
-5.94353e-11
9.09002e-11
-6.25412e-11
1.10321e-10
-6.46052e-11
1.27873e-10
1.38322e-10
-6.41993e-11
-1.33615e-11
4.72044e-12
-1.43183e-11
1.33446e-11
-1.57274e-11
1.66288e-11
-1.74223e-11
1.91283e-11
-1.93874e-11
1.94641e-11
-2.1446e-11
1.89448e-11
-2.34835e-11
1.78578e-11
-2.54081e-11
1.64726e-11
-2.71783e-11
1.48426e-11
-2.87768e-11
1.29472e-11
-3.01969e-11
1.07886e-11
-3.14347e-11
8.41133e-12
-3.24906e-11
5.90568e-12
-3.33726e-11
3.39343e-12
-3.41026e-11
1.02011e-12
-3.47208e-11
-1.04614e-12
-3.52916e-11
-2.60691e-12
-3.59093e-11
-3.4174e-12
-3.67042e-11
-3.16074e-12
-3.78448e-11
-1.4144e-12
-3.95305e-11
2.38672e-12
-4.19606e-11
8.94259e-12
-4.52623e-11
1.90465e-11
-4.93909e-11
3.31971e-11
-5.40143e-11
5.15516e-11
-5.85467e-11
7.23616e-11
-6.23099e-11
9.46634e-11
-6.46907e-11
1.12702e-10
-6.59744e-11
1.29157e-10
1.37252e-10
-6.49046e-11
-1.44885e-11
5.49927e-12
-1.5499e-11
1.43551e-11
-1.69608e-11
1.80907e-11
-1.8713e-11
2.08804e-11
-2.07516e-11
2.15027e-11
-2.29118e-11
2.11051e-11
-2.50782e-11
2.00242e-11
-2.71507e-11
1.85452e-11
-2.90767e-11
1.67686e-11
-3.08309e-11
1.47013e-11
-3.24027e-11
1.23605e-11
-3.37883e-11
9.79694e-12
-3.49896e-11
7.10699e-12
-3.60178e-11
4.4216e-12
-3.6898e-11
1.90032e-12
-3.76747e-11
-2.69408e-13
-3.8417e-11
-1.86467e-12
-3.92234e-11
-2.61097e-12
-4.02262e-11
-2.15797e-12
-4.15895e-11
-5.10181e-14
-4.34954e-11
4.29256e-12
-4.6105e-11
1.15523e-11
-4.94843e-11
2.24258e-11
-5.3515e-11
3.72278e-11
-5.78119e-11
5.58484e-11
-6.17986e-11
7.63483e-11
-6.48628e-11
9.77276e-11
-6.65207e-11
1.1436e-10
-6.704e-11
1.29676e-10
1.35535e-10
-6.53229e-11
-1.56527e-11
6.36386e-12
-1.67208e-11
1.54232e-11
-1.82371e-11
1.96069e-11
-2.00459e-11
2.26891e-11
-2.21539e-11
2.36107e-11
-2.44084e-11
2.33596e-11
-2.66953e-11
2.23111e-11
-2.89093e-11
2.07591e-11
-3.09878e-11
1.88471e-11
-3.28975e-11
1.6611e-11
-3.46236e-11
1.40866e-11
-3.61612e-11
1.13346e-11
-3.75135e-11
8.45929e-12
-3.86941e-11
5.60217e-12
-3.97313e-11
2.93754e-12
-4.06732e-11
6.72456e-13
-4.15922e-11
-9.45703e-13
-4.25892e-11
-1.61397e-12
-4.37949e-11
-9.52196e-13
-4.53645e-11
1.51853e-12
-4.74566e-11
6.38471e-12
-5.01907e-11
1.42863e-11
-5.35728e-11
2.58079e-11
-5.74228e-11
4.10779e-11
-6.13222e-11
5.97478e-11
-6.47213e-11
7.97474e-11
-6.70777e-11
1.00084e-10
-6.80195e-11
1.15302e-10
-6.77925e-11
1.29449e-10
1.33189e-10
-6.54467e-11
-1.68482e-11
7.32124e-12
-1.79784e-11
1.65534e-11
-1.95509e-11
2.11794e-11
-2.14157e-11
2.4554e-11
-2.35892e-11
2.57842e-11
-2.59308e-11
2.57012e-11
-2.83295e-11
2.47098e-11
-3.06769e-11
2.31065e-11
-3.29024e-11
2.10726e-11
-3.49652e-11
1.86738e-11
-3.68457e-11
1.5967e-11
-3.85373e-11
1.30261e-11
-4.00437e-11
9.96571e-12
-4.13805e-11
6.93899e-12
-4.25787e-11
4.13571e-12
-4.36889e-11
1.78267e-12
-4.47857e-11
1.51061e-13
-4.59698e-11
-4.29813e-13
-4.73673e-11
4.45255e-13
-4.91193e-11
3.27059e-12
-5.13575e-11
8.62287e-12
-5.41573e-11
1.70861e-11
-5.74696e-11
2.91202e-11
-6.10651e-11
4.46733e-11
-6.45096e-11
6.31924e-11
-6.72921e-11
8.25299e-11
-6.89398e-11
1.01732e-10
-6.9176e-11
1.15538e-10
-6.82231e-11
1.28496e-10
1.30235e-10
-6.52692e-11
-1.80676e-11
8.37893e-12
-1.92647e-11
1.77505e-11
-2.08954e-11
2.28101e-11
-2.28158e-11
2.64744e-11
-2.50509e-11
2.80193e-11
-2.74723e-11
2.81226e-11
-2.99735e-11
2.7211e-11
-3.24451e-11
2.55782e-11
-3.48104e-11
2.34379e-11
-3.70215e-11
2.0885e-11
-3.90539e-11
1.79994e-11
-4.08988e-11
1.4871e-11
-4.25598e-11
1.16268e-11
-4.40539e-11
8.43311e-12
-4.54139e-11
5.49565e-12
-4.6692e-11
3.06079e-12
-4.79632e-11
1.42226e-12
-4.93258e-11
9.32814e-13
-5.08977e-11
2.01709e-12
-5.28026e-11
5.17551e-12
-5.51418e-11
1.09621e-11
-5.79476e-11
1.98918e-11
-6.11218e-11
3.22944e-11
-6.43987e-11
4.79503e-11
-6.73438e-11
6.61375e-11
-6.94917e-11
8.46778e-11
-7.04357e-11
1.02676e-10
-6.99799e-11
1.15082e-10
-6.83233e-11
1.2684e-10
1.26696e-10
-6.4784e-11
-1.93021e-11
9.54481e-12
-2.05715e-11
1.90198e-11
-2.22623e-11
2.45009e-11
-2.42378e-11
2.84499e-11
-2.65306e-11
3.03121e-11
-2.90247e-11
3.06167e-11
-3.16187e-11
2.9805e-11
-3.42043e-11
2.81638e-11
-3.67001e-11
2.59337e-11
-3.90524e-11
2.32372e-11
-4.12317e-11
2.01787e-11
-4.32265e-11
1.68659e-11
-4.504e-11
1.34403e-11
-4.66895e-11
1.00826e-11
-4.82087e-11
7.01488e-12
-4.96505e-11
4.50253e-12
-5.10883e-11
2.86009e-12
-5.26157e-11
2.46019e-12
-5.43393e-11
3.74069e-12
-5.63626e-11
7.19885e-12
-5.87552e-11
1.33547e-11
-6.1508e-11
2.26446e-11
-6.44817e-11
3.52681e-11
-6.73864e-11
5.0855e-11
-6.97987e-11
6.85498e-11
-7.13028e-11
8.61818e-11
-7.15528e-11
1.02926e-10
-7.04213e-11
1.13951e-10
-6.80855e-11
1.24504e-10
1.22596e-10
-6.39853e-11
-2.05409e-11
1.08271e-11
-2.18883e-11
2.03672e-11
-2.36417e-11
2.62543e-11
-2.56717e-11
3.04798e-11
-2.80184e-11
3.26588e-11
-3.05777e-11
3.31761e-11
-3.32546e-11
3.24819e-11
-3.59429e-11
3.08521e-11
-3.85584e-11
2.85492e-11
-4.10425e-11
2.57214e-11
-4.33612e-11
2.24974e-11
-4.55001e-11
1.90047e-11
-4.74608e-11
1.5401e-11
-4.92606e-11
1.18824e-11
-5.09332e-11
8.68745e-12
-5.25304e-11
6.09975e-12
-5.41227e-11
4.45244e-12
-5.57965e-11
4.13395e-12
-5.76447e-11
5.58892e-12
-5.97486e-11
9.30268e-12
-6.21457e-11
1.57518e-11
-6.47892e-11
2.52882e-11
-6.75069e-11
3.79857e-11
-6.99955e-11
5.33436e-11
-7.18516e-11
7.04059e-11
-7.27097e-11
8.70399e-11
-7.22794e-11
1.02495e-10
-7.04909e-11
1.12162e-10
-6.75025e-11
1.21516e-10
1.17961e-10
-6.28676e-11
-2.17714e-11
1.22344e-11
-2.32031e-11
2.17989e-11
-2.50215e-11
2.80728e-11
-2.71055e-11
3.25638e-11
-2.95021e-11
3.50554e-11
-3.21193e-11
3.57933e-11
-3.48685e-11
3.52311e-11
-3.76474e-11
3.3631e-11
-4.03704e-11
3.12721e-11
-4.2975e-11
2.8326e-11
-4.54231e-11
2.49456e-11
-4.76972e-11
2.12787e-11
-4.97971e-11
1.75009e-11
-5.1739e-11
1.38243e-11
-5.35555e-11
1.0504e-11
-5.52963e-11
7.84055e-12
-5.7027e-11
6.18316e-12
-5.88247e-11
5.93165e-12
-6.07668e-11
7.53107e-12
-6.2911e-11
1.14469e-11
-6.52641e-11
1.8105e-11
-6.77461e-11
2.77701e-11
-7.01595e-11
4.03991e-11
-7.21974e-11
5.53815e-11
-7.34826e-11
7.16911e-11
-7.36985e-11
8.72558e-11
-7.26044e-11
1.01401e-10
-7.01803e-11
1.09738e-10
-6.65676e-11
1.17903e-10
1.12819e-10
-6.14261e-11
-2.29787e-11
1.37752e-11
-2.45014e-11
2.33216e-11
-2.63876e-11
2.99591e-11
-2.85253e-11
3.47015e-11
-3.09677e-11
3.74978e-11
-3.3635e-11
3.84606e-11
-3.64458e-11
3.80419e-11
-3.93024e-11
3.64876e-11
-4.21192e-11
3.40889e-11
-4.48311e-11
3.10379e-11
-4.73964e-11
2.75108e-11
-4.97942e-11
2.36766e-11
-5.20223e-11
1.9729e-11
-5.4095e-11
1.58969e-11
-5.60427e-11
1.24517e-11
-5.79116e-11
9.70944e-12
-5.97609e-11
8.03241e-12
-6.16566e-11
7.82738e-12
-6.36593e-11
9.53374e-12
-6.58027e-11
1.35903e-11
-6.80649e-11
2.03671e-11
-7.03376e-11
3.00428e-11
-7.2406e-11
4.24675e-11
-7.39671e-11
5.69426e-11
-7.46737e-11
7.23977e-11
-7.4256e-11
8.68382e-11
-7.25178e-11
9.96631e-11
-6.94815e-11
1.06702e-10
-6.5275e-11
1.13696e-10
1.07201e-10
-5.96564e-11
-2.41458e-11
1.54581e-11
-2.57664e-11
2.49422e-11
-2.77235e-11
3.19162e-11
-2.99145e-11
3.68924e-11
-3.23987e-11
3.9982e-11
-3.51084e-11
4.11703e-11
-3.79696e-11
4.09032e-11
-4.08903e-11
3.94083e-11
-4.37861e-11
3.69846e-11
-4.65903e-11
3.38422e-11
-4.92582e-11
3.01787e-11
-5.17659e-11
2.61843e-11
-5.41084e-11
2.20715e-11
-5.62975e-11
1.80861e-11
-5.83606e-11
1.45148e-11
-6.03389e-11
1.16877e-11
-6.22837e-11
9.97719e-12
-6.42488e-11
9.79252e-12
-6.62769e-11
1.15618e-11
-6.83785e-11
1.56918e-11
-7.05053e-11
2.2494e-11
-7.25264e-11
3.20639e-11
-7.42164e-11
4.41575e-11
-7.52822e-11
5.80084e-11
-7.54088e-11
7.25243e-11
-7.43702e-11
8.57996e-11
-7.20099e-11
9.73028e-11
-6.83875e-11
1.03079e-10
-6.36193e-11
1.08928e-10
1.01136e-10
-5.75543e-11
-2.52532e-11
1.72918e-11
-2.6979e-11
2.6668e-11
-2.90101e-11
3.39473e-11
-3.12542e-11
3.91365e-11
-3.37761e-11
4.25039e-11
-3.65202e-11
4.39144e-11
-3.94205e-11
4.38034e-11
-4.2391e-11
4.23788e-11
-4.53499e-11
3.99435e-11
-4.823e-11
3.67223e-11
-5.09841e-11
3.29327e-11
-5.35854e-11
2.87857e-11
-5.6026e-11
2.45121e-11
-5.83145e-11
2.03745e-11
-6.04741e-11
1.66744e-11
-6.25401e-11
1.37537e-11
-6.45547e-11
1.19919e-11
-6.65586e-11
1.17964e-11
-6.85762e-11
1.35794e-11
-7.05958e-11
1.77115e-11
-7.25464e-11
2.44446e-11
-7.42789e-11
3.37964e-11
-7.55639e-11
4.54424e-11
-7.61227e-11
5.85672e-11
-7.56733e-11
7.2075e-11
-7.40301e-11
8.41564e-11
-7.10722e-11
9.43449e-11
-6.68916e-11
9.88989e-11
-6.15954e-11
1.03632e-10
9.46566e-11
-5.51163e-11
-2.6279e-11
1.92841e-11
-2.81173e-11
2.85064e-11
-3.02258e-11
3.60558e-11
-3.25228e-11
4.14335e-11
-3.50784e-11
4.50595e-11
-3.78489e-11
4.66849e-11
-4.07765e-11
4.6731e-11
-4.37822e-11
4.53846e-11
-4.67875e-11
4.29488e-11
-4.97256e-11
3.96604e-11
-5.25477e-11
3.57548e-11
-5.52243e-11
3.14623e-11
-5.77443e-11
2.7032e-11
-6.01124e-11
2.27427e-11
-6.23472e-11
1.89092e-11
-6.44768e-11
1.58833e-11
-6.65337e-11
1.40487e-11
-6.85443e-11
1.38071e-11
-7.05155e-11
1.55505e-11
-7.24149e-11
1.96109e-11
-7.41518e-11
2.61815e-11
-7.55647e-11
3.52093e-11
-7.64245e-11
4.63023e-11
-7.64706e-11
5.86133e-11
-7.54538e-11
7.10582e-11
-7.32253e-11
8.19278e-11
-6.96966e-11
9.08162e-11
-6.49879e-11
9.41902e-11
-5.9199e-11
9.78432e-11
8.77966e-11
-5.23391e-11
-2.71987e-11
2.14426e-11
-2.91567e-11
3.04644e-11
-3.13459e-11
3.82449e-11
-3.36958e-11
4.37835e-11
-3.62811e-11
4.76448e-11
-3.907e-11
4.94738e-11
-4.2013e-11
4.9674e-11
-4.50389e-11
4.84104e-11
-4.80731e-11
4.59831e-11
-5.10503e-11
4.26376e-11
-5.39207e-11
3.86252e-11
-5.66524e-11
3.4194e-11
-5.9231e-11
2.96106e-11
-6.1657e-11
2.51688e-11
-6.39434e-11
2.11956e-11
-6.61107e-11
1.80506e-11
-6.81804e-11
1.61185e-11
-7.01653e-11
1.5792e-11
-7.20548e-11
1.744e-11
-7.37981e-11
2.13542e-11
-7.52885e-11
2.76719e-11
-7.6356e-11
3.62767e-11
-7.67766e-11
4.67229e-11
-7.63097e-11
5.81464e-11
-7.47379e-11
6.94864e-11
-7.19464e-11
7.91363e-11
-6.78758e-11
8.67456e-11
-6.26711e-11
8.89854e-11
-5.6426e-11
9.15981e-11
8.05902e-11
-4.92196e-11
-2.79853e-11
2.37738e-11
-3.007e-11
3.2549e-11
-3.23431e-11
4.05181e-11
-3.4746e-11
4.61863e-11
-3.7357e-11
5.02558e-11
-4.01562e-11
5.2273e-11
-4.31028e-11
5.26206e-11
-4.61335e-11
5.14411e-11
-4.91787e-11
4.90283e-11
-5.21752e-11
4.56341e-11
-5.50729e-11
4.15229e-11
-5.7838e-11
3.69591e-11
-6.04527e-11
3.22252e-11
-6.2913e-11
2.76291e-11
-6.52257e-11
2.35083e-11
-6.74031e-11
2.02279e-11
-6.94557e-11
1.81711e-11
-7.13824e-11
1.77186e-11
-7.31564e-11
1.9214e-11
-7.47107e-11
2.29085e-11
-7.59258e-11
2.8887e-11
-7.66276e-11
3.69785e-11
-7.66005e-11
4.66958e-11