/*--------------------------------*- C++ -*----------------------------------*\
| =========                 |                                                 |
| \\      /  F ield         | OpenFOAM: The Open Source CFD Toolbox           |
|  \\    /   O peration     | Version:  2.4.0                                 |
|   \\  /    A nd           | Web:      www.OpenFOAM.org                      |
|    \\/     M anipulation  |                                                 |
\*---------------------------------------------------------------------------*/
FoamFile
{
    version     2.0;
    format      ascii;
    class       volVectorField;
    location    "0.03";
    object      U;
}
// * * * * * * * * * * * * * * * * * * * * * * * * * * * * * * * * * * * * * //

dimensions      [0 1 -1 0 0 0 0];

internalField   nonuniform List<vector> 
7200
(
(-5.56564e-05 0.00088122 -4.78358e-25)
(6.5235e-05 -0.000197571 3.06841e-22)
(-0.000182586 0.000235368 -1.1873e-21)
(0.000152326 5.07979e-05 0)
(-0.000235691 0.000254885 -1.32896e-23)
(-2.84552e-05 0.000127709 -1.56704e-21)
(-0.000158411 0.000166661 0)
(-0.000106326 0.000120471 0)
(-0.0001412 0.000111772 0)
(-0.000130187 8.73594e-05 -3.87617e-23)
(-0.000135187 6.94266e-05 1.35631e-21)
(-0.000129828 5.06835e-05 1.48908e-21)
(-0.000125295 3.38979e-05 1.53691e-21)
(-0.000117729 1.86812e-05 -2.48874e-23)
(-0.000109012 5.34378e-06 -1.193e-25)
(-9.89844e-05 -5.98718e-06 0)
(-8.80255e-05 -1.52607e-05 2.7708e-23)
(-7.7048e-05 -2.25032e-05 4.40386e-24)
(-6.41183e-05 -2.7445e-05 1.75321e-21)
(-5.77538e-05 -3.19317e-05 -3.18517e-23)
(-3.05957e-05 -2.85246e-05 -5.38286e-23)
(-7.18362e-05 -4.74414e-05 -3.19669e-21)
(8.7397e-05 1.65229e-05 2.78944e-21)
(-0.000321937 -0.000176744 3.42086e-21)
(0.000787867 0.000376885 5.24339e-22)
(-0.00201002 -0.00109993 -3.71006e-21)
(0.00412254 0.00230017 7.61982e-23)
(-0.00564246 -0.00314167 -3.2434e-21)
(0.00409699 0.00116049 1.66983e-20)
(-0.00149639 0.000195467 -2.51575e-21)
(-0.000227289 0.00284444 -8.99548e-25)
(9.44011e-05 0.000252911 -4.41422e-22)
(-0.000436725 0.000646207 1.42208e-21)
(0.000133403 0.000353413 0)
(-0.000458839 0.000699999 0)
(-0.000263673 0.000506506 5.98935e-23)
(-0.000455518 0.000535094 3.65434e-23)
(-0.00041399 0.000430096 -4.09434e-23)
(-0.000474537 0.000380492 0)
(-0.000470439 0.000304693 1.74786e-21)
(-0.000480405 0.000240319 -1.90807e-21)
(-0.000471232 0.000175363 -2.03036e-21)
(-0.000458136 0.000115846 -4.4502e-21)
(-0.000436483 6.12743e-05 -1.11536e-21)
(-0.000409593 1.28297e-05 2.98553e-22)
(-0.000377871 -2.90193e-05 -3.0729e-22)
(-0.000342615 -6.38669e-05 1.25112e-21)
(-0.00030571 -9.18012e-05 -2.55267e-21)
(-0.000265874 -0.000111881 9.20447e-23)
(-0.000232827 -0.000128511 2.51643e-21)
(-0.000180563 -0.000127319 -7.43267e-23)
(-0.000194493 -0.000160866 0)
(-2.72988e-05 -6.52003e-05 7.5766e-23)
(-0.000372099 -0.00033609 -5.10565e-21)
(0.00057666 0.000398604 -6.34628e-22)
(-0.00174562 -0.00148956 9.03238e-21)
(0.00418514 0.00315249 1.24221e-22)
(-0.00758545 -0.00610782 -3.459e-20)
(0.00616102 0.00303881 -2.53716e-20)
(-0.00444265 0.000272427 4.1461e-21)
(-0.00045642 0.00500497 0)
(6.14171e-06 0.00129902 -5.05171e-22)
(-0.000767936 0.00121632 -6.03258e-22)
(7.24015e-05 0.000888942 8.61175e-22)
(-0.000691052 0.00115599 0)
(-0.000520454 0.000992684 2.15051e-21)
(-0.000792297 0.000959498 0)
(-0.000778418 0.000812625 0)
(-0.000868617 0.00070331 -4.98677e-23)
(-0.000881452 0.000571098 -3.46045e-21)
(-0.000900748 0.000448544 -2.75261e-23)
(-0.000892787 0.000327368 3.17968e-23)
(-0.000873764 0.000214112 2.23354e-21)
(-0.000839612 0.000109353 1.11909e-21)
(-0.000794538 1.50742e-05 3.00094e-22)
(-0.000739758 -6.76366e-05 6.17022e-22)
(-0.000677553 -0.000137847 -1.2553e-21)
(-0.00061068 -0.000195386 0)
(-0.000539309 -0.00023909 -5.06907e-21)
(-0.000472846 -0.000273236 -2.51945e-21)
(-0.000390626 -0.000285764 7.88439e-23)
(-0.000368437 -0.000320008 1.84854e-24)
(-0.000181122 -0.000251529 -1.45329e-22)
(-0.000506291 -0.0004459 2.45552e-21)
(0.000542037 4.90725e-05 0)
(-0.00194502 -0.00116334 -4.84032e-22)
(0.00453482 0.00169639 1.22445e-22)
(-0.0103909 -0.0058944 1.39941e-20)
(0.00917184 0.00370874 -7.25147e-21)
(-0.00846617 0.000175724 0)
(-0.000737735 0.00734003 -1.23272e-24)
(-0.000175278 0.00279302 -6.1779e-24)
(-0.0011648 0.00205655 1.4002e-23)
(-0.00014014 0.00161702 -7.7396e-23)
(-0.000932792 0.0017377 5.57611e-22)
(-0.000826283 0.0015659 -1.07551e-21)
(-0.00116729 0.00146819 -1.16127e-21)
(-0.0012055 0.00126685 4.14592e-23)
(-0.00132976 0.00108924 -1.56768e-21)
(-0.001369 0.000889597 1.71026e-21)
(-0.00140283 0.000697928 1.95447e-21)
(-0.00140091 0.000509024 -2.04311e-21)
(-0.00137892 0.00033039 3.49709e-23)
(-0.00133395 0.000163791 -3.56924e-23)
(-0.00127088 1.22378e-05 2.27938e-25)
(-0.00119186 -0.000122373 -6.19919e-22)
(-0.00110024 -0.000238384 -4.01348e-23)
(-0.000999675 -0.000335164 3.93235e-23)
(-0.000892232 -0.000411198 2.5928e-21)
(-0.000786334 -0.000470537 2.41321e-21)
(-0.000669741 -0.000502685 -2.50275e-21)
(-0.000598974 -0.000545688 1.51468e-22)
(-0.000407274 -0.000497907 -1.48177e-22)
(-0.000629144 -0.000661877 -4.74921e-21)
(0.000304734 -0.000289529 -1.59249e-21)
(-0.00188806 -0.00123621 -3.42926e-21)
(0.00356754 0.000362874 -5.67056e-24)
(-0.0111343 -0.00483763 -8.21426e-21)
(0.0104699 0.00373072 1.34366e-20)
(-0.0130864 -2.22682e-05 -3.80235e-23)
(-0.001071 0.00983187 1.56689e-24)
(-0.000431002 0.00463295 5.61539e-22)
(-0.00162941 0.00319552 7.31811e-23)
(-0.000507975 0.0025485 -8.44993e-22)
(-0.00125086 0.00248292 -5.42285e-22)
(-0.00118925 0.00225165 0)
(-0.00159571 0.00207474 1.13788e-21)
(-0.00169798 0.00180337 4.4684e-23)
(-0.001865 0.00154572 -4.65894e-23)
(-0.00193858 0.00126632 -5.62557e-23)
(-0.00199313 0.000993156 2.02219e-21)
(-0.00200212 0.000723879 2.48155e-24)
(-0.00198054 0.000467058 -1.14067e-21)
(-0.00192669 0.000225835 0)
(-0.00184609 4.41242e-06 -3.02201e-22)
(-0.00174187 -0.000194295 6.22665e-22)
(-0.00161852 -0.000367723 1.2723e-21)
(-0.00148071 -0.000514551 1.28805e-21)
(-0.00133257 -0.000632852 0)
(-0.00118194 -0.000726076 0)
(-0.00102437 -0.000785713 2.51572e-21)
(-0.000900861 -0.000844199 0)
(-0.000694159 -0.000822978 -2.43868e-21)
(-0.000820798 -0.000972109 2.50313e-21)
(-1.05707e-05 -0.00070601 1.61664e-21)
(-0.0020356 -0.00154802 0)
(0.0023882 -0.000562687 8.41821e-23)
(-0.010882 -0.00369125 1.57247e-20)
(0.0100727 0.00328157 -6.19148e-21)
(-0.0182868 -0.000267548 3.79036e-23)
(-0.0014571 0.0124668 -1.76387e-25)
(-0.000747766 0.00674894 -1.6364e-23)
(-0.0021558 0.00462569 -4.21941e-23)
(-0.00102183 0.00369074 9.01119e-22)
(-0.00168628 0.00341125 0)
(-0.00163637 0.00307189 0)
(-0.00209356 0.00279448 -3.78844e-23)
(-0.00226441 0.00243343 -1.37864e-21)
(-0.00248162 0.00208114 3.18154e-21)
(-0.00259687 0.00170768 0)
(-0.00267848 0.00133922 -3.1789e-23)
(-0.00270341 0.000975652 3.31353e-23)
(-0.00268589 0.000626642 1.1108e-21)
(-0.00262541 0.000296828 -1.85048e-23)
(-0.00252804 -8.26127e-06 3.22101e-22)
(-0.00239797 -0.000284495 -2.92637e-22)
(-0.00224085 -0.000528222 -1.33682e-21)
(-0.00206251 -0.000737218 -1.25313e-21)
(-0.00186923 -0.00090903 4.14764e-23)
(-0.00166886 -0.00104632 -2.55833e-21)
(-0.00146418 -0.0011425 -7.85264e-23)
(-0.00128408 -0.00122555 2.61345e-21)
(-0.00105658 -0.0012367 4.65438e-21)
(-0.00109754 -0.0013872 1.74853e-24)
(-0.000444804 -0.00120532 6.21164e-23)
(-0.00232719 -0.00198688 -2.9519e-23)
(0.00129158 -0.00112355 2.38923e-23)
(-0.0103877 -0.00287172 -9.30766e-22)
(0.0080645 0.00251083 0)
(-0.0240188 -0.000525032 0)
(-0.00189826 0.0152339 4.20158e-24)
(-0.0011184 0.00909287 -6.13383e-22)
(-0.00273214 0.00632619 -1.8466e-23)
(-0.00166372 0.00504346 6.46748e-23)
(-0.00226023 0.00452842 0)
(-0.00219485 0.00404243 3.31102e-23)
(-0.002681 0.00364029 -3.75993e-23)
(-0.00291681 0.00316809 1.43483e-21)
(-0.00318853 0.00270391 -1.60337e-21)
(-0.00335148 0.00222032 0)
(-0.00346618 0.00174125 -1.95201e-21)
(-0.00351211 0.0012682 2.1005e-21)
(-0.00350255 0.000811821 3.53559e-23)
(-0.00343799 0.000378267 -1.2066e-21)
(-0.00332502 -2.54953e-05 1.76827e-26)
(-0.00316882 -0.000393945 0)
(-0.00297632 -0.000722176 0)
(-0.00275458 -0.00100685 0)
(-0.00251219 -0.00124487 2.58475e-21)
(-0.00225761 -0.00143796 2.57178e-21)
(-0.00200042 -0.00158136 -2.44437e-21)
(-0.00176153 -0.00169928 2.31966e-23)
(-0.0015089 -0.00175009 -2.60728e-21)
(-0.00148134 -0.00190951 2.57275e-21)
(-0.000989709 -0.00179468 0)
(-0.0027069 -0.00248495 -2.94426e-21)
(0.00028763 -0.00153053 -6.59497e-23)
(-0.0102369 -0.00255199 -5.69121e-22)
(0.00457436 0.00154528 7.36762e-23)
(-0.0302 -0.000772873 -3.65896e-23)
(-0.00239772 0.0181243 -9.07287e-25)
(-0.00154064 0.0116314 6.34132e-22)
(-0.00334708 0.00827338 -3.27888e-22)
(-0.00241066 0.00660126 -9.85376e-22)
(-0.00297623 0.00583162 -3.17536e-23)
(-0.00288542 0.00517086 0)
(-0.00337847 0.00462127 3.91454e-23)
(-0.00366961 0.00401655 -1.49913e-21)
(-0.00399613 0.00342182 1.57175e-21)
(-0.00421092 0.00281061 5.51763e-23)
(-0.00436401 0.00220431 0)
(-0.00443584 0.00160544 0)
(-0.00443831 0.00102539 3.54829e-23)
(-0.00437256 0.00047182 1.11971e-21)
(-0.00424561 -4.67969e-05 -5.91797e-22)
(-0.00406357 -0.000523407 3.34842e-22)
(-0.00383463 -0.000951687 -1.98213e-23)
(-0.00356731 -0.00132702 0)
(-0.00327255 -0.00164549 6.06735e-24)
(-0.00296017 -0.0019078 8.47066e-23)
(-0.00264632 -0.00211073 2.54405e-21)
(-0.00234766 -0.0022752 -2.59358e-21)
(-0.00206777 -0.00237305 0)
(-0.00198486 -0.00254702 -2.52931e-21)
(-0.00163798 -0.00248365 0)
(-0.00316549 -0.00305585 2.99992e-21)
(-0.000801996 -0.0019999 -6.27766e-24)
(-0.010826 -0.00275542 -4.83918e-22)
(-0.00024097 0.000490995 6.86024e-23)
(-0.0367366 -0.000997188 -3.54239e-23)
(-0.00295944 0.0211304 -6.00132e-24)
(-0.00201606 0.014341 -1.34112e-21)
(-0.00399317 0.0104454 7.84251e-22)
(-0.00323846 0.0083569 2.51789e-23)
(-0.00382468 0.00731382 0)
(-0.00371848 0.00645796 1.21993e-21)
(-0.00420315 0.00574195 -3.99019e-23)
(-0.00453751 0.00498523 1.4703e-21)
(-0.00491566 0.00424131 -1.68885e-21)
(-0.00518424 0.00348428 5.57177e-23)
(-0.00538002 0.00273323 0)
(-0.00548236 0.00199121 3.36121e-23)
(-0.00550105 0.00127022 1.08822e-21)
(-0.0054374 0.000579336 -1.86821e-23)
(-0.00529863 -7.14217e-05 3.25065e-22)
(-0.00509172 -0.000673349 -2.95759e-22)
(-0.00482612 -0.00121857 -1.9886e-23)
(-0.00451193 -0.00170101 -4.19234e-23)
(-0.00416263 -0.00211581 -2.61541e-21)
(-0.00379007 -0.00246255 -2.75728e-21)
(-0.00341703 -0.00273919 -2.58953e-21)
(-0.00305909 -0.00296355 8.52649e-23)
(-0.00275086 -0.00311755 -2.77554e-21)
(-0.00262233 -0.0033144 7.73342e-23)
(-0.00240106 -0.00329824 -2.34756e-21)
(-0.00377465 -0.00375971 0)
(-0.00221811 -0.00269177 1.38724e-22)
(-0.0124042 -0.00341152 -6.01685e-21)
(-0.00619097 -0.000569468 2.47099e-21)
(-0.0435299 -0.00118972 -3.39569e-23)
(-0.00358773 0.0242456 9.91974e-24)
(-0.00254893 0.0172045 7.0903e-22)
(-0.00466801 0.0128235 -4.69574e-22)
(-0.00412569 0.0103034 -1.3211e-21)
(-0.00478769 0.00896722 0)
(-0.00469376 0.00790016 -1.20248e-21)
(-0.00516616 0.00700266 -1.26175e-21)
(-0.00553332 0.00607745 -4.54996e-23)
(-0.00595806 0.00516691 -1.67349e-21)
(-0.00628056 0.00424607 -1.84487e-21)
(-0.00652224 0.00333231 1.99402e-21)
(-0.00665938 0.0024292 -2.16623e-21)
(-0.00669859 0.00154923 -1.09232e-21)
(-0.00664076 0.000702865 1.19948e-21)
(-0.00649301 -9.83131e-05 -3.25543e-22)
(-0.00626307 -0.000843854 2.96111e-22)
(-0.00596163 -0.0015242 6.12045e-23)
(-0.00560052 -0.00213171 -8.26373e-23)
(-0.00519597 -0.00266042 2.71301e-21)
(-0.00476259 -0.00310874 2.6861e-21)
(-0.00432995 -0.00347541 5.38634e-21)
(-0.00391517 -0.00377545 8.67716e-23)
(-0.00358003 -0.00399861 2.55699e-21)
(-0.00341853 -0.00423405 0)
(-0.00332662 -0.00427675 2.38302e-21)
(-0.00466716 -0.00466723 0)
(-0.00419806 -0.003686 1.05962e-21)
(-0.0150885 -0.00440376 5.27351e-23)
(-0.0130658 -0.00157562 -2.48329e-21)
(-0.0504816 -0.00134633 -3.22277e-23)
(-0.00428698 0.0274633 -1.6734e-23)
(-0.00314513 0.0202085 1.57147e-23)
(-0.00537388 0.015392 5.76867e-22)
(-0.00505628 0.012435 1.33802e-21)
(-0.00584395 0.0107854 -3.26828e-23)
(-0.00580205 0.00949212 3.77909e-23)
(-0.00627131 0.00840086 1.27611e-21)
(-0.00666613 0.00729371 4.70646e-23)
(-0.00713278 0.00620116 3.44745e-21)
(-0.00750831 0.00509948 -1.28449e-22)
(-0.00779833 0.00400524 6.95644e-23)
(-0.00797424 0.00292284 2.14195e-21)
(-0.00803845 0.00186538 0)
(-0.0079907 0.000844684 -1.16593e-21)
(-0.00783765 -0.000126029 5.95791e-22)
(-0.0075876 -0.00103449 -3.37359e-22)
(-0.00725245 -0.00186938 6.13179e-23)
(-0.00684597 -0.00262136 1.28108e-21)
(-0.00638742 -0.00328328 -2.72685e-21)
(-0.0058949 -0.00385236 -4.55319e-23)
(-0.00540518 -0.00432794 -2.54514e-21)
(-0.00493948 -0.00472282 -1.70628e-22)
(-0.00458502 -0.00503376 8.17674e-23)
(-0.00441637 -0.0053324 2.61525e-21)
(-0.00449914 -0.00545896 1.72319e-22)
(-0.00600596 -0.0058299 -1.50448e-22)
(-0.00693139 -0.00498735 -1.16354e-21)
(-0.0188851 -0.00560219 -4.77442e-21)
(-0.0206508 -0.00248659 2.05288e-21)
(-0.0574966 -0.00146591 -1.81716e-21)
(-0.0050614 0.0307775 9.04011e-24)
(-0.00381117 0.0233421 -1.65318e-23)
(-0.00611681 0.0181377 -5.81184e-22)
(-0.00602059 0.0147469 -1.73393e-23)
(-0.00697277 0.0127644 -1.2106e-21)
(-0.00702812 0.0112289 1.23411e-22)
(-0.00751529 0.00993264 1.43489e-21)
(-0.00794018 0.00863249 -4.89185e-23)
(-0.00844662 0.00734481 -3.46609e-21)
(-0.00887455 0.00604675 1.88142e-21)
(-0.00921505 0.00475499 -4.08878e-21)
(-0.00943366 0.00347527 3.3263e-23)
(-0.00952765 0.00222161 3.59868e-23)
(-0.0094949 0.00100734 -5.54126e-23)
(-0.00934121 -0.000152655 -2.89114e-22)
(-0.00907525 -0.0012442 2.0154e-23)
(-0.00871019 -0.0022541 -1.99865e-23)
(-0.00826191 -0.00317131 -2.64893e-21)
(-0.00775307 -0.00398742 2.68442e-21)
(-0.0072062 -0.00469854 8.73494e-23)
(-0.0066661 -0.00530465 -8.33766e-23)
(-0.00616125 -0.00581733 2.83095e-21)
(-0.00580627 -0.00624046 -2.93483e-21)
(-0.00567874 -0.00663356 1.82467e-22)
(-0.00602921 -0.00687334 1.49706e-23)
(-0.00795122 -0.00726387 2.79302e-21)
(-0.0105368 -0.00654383 0)
(-0.0237154 -0.00688433 4.95535e-21)
(-0.0287378 -0.00327833 -2.07335e-21)
(-0.0644865 -0.00154944 1.92132e-21)
(-0.00591493 0.034182 -1.65739e-23)
(-0.00455351 0.0265961 1.73756e-23)
(-0.00690524 0.0210486 -3.89167e-23)
(-0.00701533 0.0172351 1.86243e-23)
(-0.00815701 0.0149024 -1.29614e-22)
(-0.00835399 0.0131072 6.80616e-25)
(-0.00888899 0.0115942 -1.40498e-21)
(-0.00935464 0.0100913 0)
(-0.00990303 0.00859732 -8.70756e-23)
(-0.0103842 0.00708909 1.98993e-21)
(-0.0107778 0.00558384 1.93455e-23)
(-0.0110433 0.00408933 -6.79068e-23)
(-0.0111724 0.00262094 7.13449e-23)
(-0.0111604 0.00119369 -1.78708e-23)
(-0.0110119 -0.000175709 -3.26494e-22)
(-0.0107358 -0.0014711 -2.01421e-23)
(-0.0103466 -0.00267736 1.99789e-23)
(-0.0098625 -0.0037817 1.32722e-21)
(-0.00931022 -0.00477446 -2.69635e-21)
(-0.00871784 -0.00565086 -2.62662e-21)
(-0.00813973 -0.0064117 5.10356e-24)
(-0.00761618 -0.00706851 -5.51434e-21)
(-0.0072953 -0.00763219 5.57306e-24)
(-0.00728439 -0.00815215 -5.63386e-21)
(-0.00803632 -0.00852736 -5.51873e-21)
(-0.0106334 -0.00894647 -4.90161e-23)
(-0.0150556 -0.00826878 -6.40479e-23)
(-0.0294421 -0.00814718 0)
(-0.0371338 -0.00394055 4.27816e-23)
(-0.0713713 -0.00159924 -3.16197e-21)
(-0.00685109 0.0376706 1.46514e-23)
(-0.00537805 0.0299616 4.69354e-24)
(-0.00774869 0.0241139 0)
(-0.00804256 0.0198953 1.62686e-21)
(-0.00938459 0.0171994 1.32709e-21)
(-0.00976178 0.015126 1.54825e-21)
(-0.0103794 0.0133829 5.17342e-23)
(-0.010904 0.0116675 0)
(-0.0115018 0.0099575 1.74774e-21)
(-0.0120397 0.00822693 -1.88253e-21)
(-0.0124901 0.00649356 2.03565e-21)
(-0.0128076 0.00476766 3.38779e-23)
(-0.0129778 0.00306646 3.62325e-23)
(-0.0129934 0.00140699 -1.22762e-21)
(-0.0128573 -0.000192039 6.15817e-22)
(-0.0125786 -0.00171238 0)
(-0.0121732 -0.00313694 -1.29159e-21)
(-0.0116622 -0.00445113 -4.21681e-23)
(-0.0110771 -0.00564415 2.71533e-21)
(-0.0104531 -0.00671054 5.52427e-21)
(-0.00985654 -0.00765221 -1.72762e-22)
(-0.00934586 -0.00848124 2.86328e-21)
(-0.00911215 -0.00921418 1.68571e-23)
(-0.00931919 -0.00988757 2.80496e-21)
(-0.0106303 -0.0104028 5.60147e-21)
(-0.0141353 -0.0108218 -1.68229e-22)
(-0.0204576 -0.0100616 0)
(-0.0358931 -0.00931275 0)
(-0.0456665 -0.00447349 0)
(-0.0780804 -0.00161834 4.6538e-22)
(-0.00787298 0.041237 0)
(-0.00628992 0.0334307 1.92138e-23)
(-0.00865672 0.0273231 -2.61047e-23)
(-0.00910831 0.0227226 -1.71027e-21)
(-0.010649 0.019656 0)
(-0.011236 0.017286 7.18241e-23)
(-0.0119717 0.0152979 5.13866e-23)
(-0.0125792 0.0133595 -3.66547e-21)
(-0.0132391 0.0114242 -1.89757e-21)
(-0.0138408 0.00946038 0)
(-0.0143536 0.0074856 -2.11411e-21)
(-0.0147292 0.00551277 0)
(-0.0149477 0.00356142 1.15206e-21)
(-0.0149988 0.00165095 5.79752e-22)
(-0.0148839 -0.000197719 1.76304e-23)
(-0.0146121 -0.00196412 2.00354e-23)
(-0.014201 -0.00362909 1.91869e-21)
(-0.0136754 -0.00517629 -4.19635e-23)
(-0.0130723 -0.00659377 -5.3029e-21)
(-0.0124364 -0.00787556 -2.63518e-21)
(-0.0118496 -0.00902462 5.15261e-24)
(-0.0113958 -0.0100533 -8.40018e-23)
(-0.0113203 -0.0109799 5.61666e-21)
(-0.0118652 -0.0118207 0)
(-0.0138956 -0.0124567 9.0827e-23)
(-0.0184842 -0.0128113 -5.34105e-21)
(-0.0266537 -0.0118241 4.5104e-23)
(-0.0428815 -0.0103288 -5.45069e-23)
(-0.054187 -0.00488476 4.62861e-23)
(-0.0845525 -0.00160997 3.06813e-21)
(-0.00898327 0.0448745 -3.76384e-24)
(-0.00729337 0.0369952 2.56352e-23)
(-0.00963811 0.0306658 -2.71829e-23)
(-0.010221 0.0257111 0)
(-0.0119488 0.0222725 1.57428e-21)
(-0.0127647 0.0195894 1.23124e-22)
(-0.0136513 0.0173399 -5.77461e-23)
(-0.0143689 0.0151667 5.52499e-21)
(-0.0151083 0.0129966 1.91264e-21)
(-0.0157842 0.0107896 -2.11877e-21)
(-0.0163675 0.00856137 2.22545e-21)
(-0.0168089 0.00632722 -6.97097e-23)
(-0.0170842 0.00410935 -1.08405e-21)
(-0.0171802 0.00192982 5.61155e-22)
(-0.017097 -0.00018796 -3.07901e-22)
(-0.0168438 -0.00222114 0)
(-0.0164404 -0.0041484 -6.44805e-22)
(-0.0159158 -0.00595158 -4.16387e-23)
(-0.0153145 -0.00761752 7.79238e-23)
(-0.0146928 -0.00913966 0)
(-0.0141527 -0.0105213 -2.69873e-21)
(-0.0138118 -0.0117733 2.80212e-21)
(-0.0139799 -0.0129092 -2.89922e-21)
(-0.0149897 -0.013914 0)
(-0.0178803 -0.0146262 0)
(-0.0236524 -0.0148264 2.50004e-21)
(-0.0335126 -0.0134723 5.91044e-23)
(-0.0502217 -0.0111667 -2.03801e-21)
(-0.0625705 -0.00518653 2.79603e-23)
(-0.0907353 -0.00157722 -1.81428e-23)
(-0.0101842 0.0485762 0)
(-0.00839179 0.0406472 -9.28389e-22)
(-0.0107003 0.0341316 0)
(-0.0113902 0.0288534 5.17529e-23)
(-0.0132866 0.0250481 -1.664e-21)
(-0.0143404 0.0220386 -1.81312e-21)
(-0.0154051 0.0195111 3.75578e-21)
(-0.0162605 0.0170899 -1.9579e-21)
(-0.0171004 0.0146751 1.25554e-22)
(-0.0178645 0.0122153 2.00274e-21)
(-0.0185289 0.0097224 -3.39921e-23)
(-0.0190456 0.00721373 3.50714e-23)
(-0.0193877 0.00471407 1.12659e-21)
(-0.0195397 0.00224843 3.7117e-23)
(-0.0195003 -0.00015704 0)
(-0.0192797 -0.00247692 3.11016e-22)
(-0.0189001 -0.00468756 6.3221e-22)
(-0.0183961 -0.00676882 1.28208e-21)
(-0.0178209 -0.0087061 4.74605e-23)
(-0.0172461 -0.0104917 2.70818e-21)
(-0.016798 -0.0121277 2.63428e-21)
(-0.0166361 -0.0136197 -5.30159e-21)
(-0.0171408 -0.0149681 2.59137e-21)
(-0.0187365 -0.0161139 -2.56418e-21)
(-0.0225909 -0.0168361 2.49816e-21)
(-0.0295643 -0.0167798 0)
(-0.0408776 -0.014942 2.94042e-23)
(-0.0577403 -0.0118168 3.4928e-21)
(-0.0707152 -0.00539302 1.30493e-21)
(-0.0965843 -0.00152281 1.53536e-23)
(-0.0114775 0.052335 4.59619e-24)
(-0.00958783 0.0443789 2.92805e-21)
(-0.0118494 0.0377103 1.02425e-21)
(-0.0126251 0.0321412 -2.96572e-23)
(-0.0146679 0.0279805 6.31889e-23)
(-0.0159592 0.0246358 5.80518e-23)
(-0.0172225 0.0218145 -5.8986e-21)
(-0.018242 0.0191312 -1.91592e-21)
(-0.0192049 0.0164607 -6.57374e-23)
(-0.020074 0.0137384 -2.15681e-21)
(-0.0208324 0.0109706 -2.18556e-21)
(-0.021436 0.0081753 -7.11577e-23)
(-0.0218565 0.00537982 -1.09446e-21)
(-0.022077 0.00261226 -3.72017e-23)
(-0.0220957 -9.827e-05 3.03782e-22)
(-0.0219237 -0.00272351 -3.11995e-22)
(-0.021587 -0.00523727 -6.3433e-22)
(-0.0211265 -0.00761707 -1.28692e-21)
(-0.0206067 -0.00984631 1.76153e-23)
(-0.0201172 -0.011915 -2.59684e-21)
(-0.0198135 -0.0138215 2.66844e-21)
(-0.0199024 -0.0155609 2.51097e-21)
(-0.0208364 -0.0171107 -2.53595e-21)
(-0.0231203 -0.0183562 4.92957e-21)
(-0.0279928 -0.0190072 -2.53516e-21)
(-0.0361071 -0.0185945 5.33946e-23)
(-0.0485824 -0.0161913 -2.48199e-23)
(-0.0652829 -0.012284 -1.47675e-21)
(-0.0785395 -0.00551869 -1.36475e-21)
(-0.102061 -0.001449 -1.24561e-23)
(-0.0128646 0.056143 0)
(-0.0108835 0.0481819 -9.81511e-22)
(-0.0130897 0.0413917 -1.13738e-21)
(-0.0139342 0.0355649 -5.68333e-23)
(-0.0160998 0.0310653 8.60645e-24)
(-0.0176211 0.0273817 6.43023e-23)
(-0.0190958 0.0242529 1.99813e-21)
(-0.020302 0.0212931 2.06159e-21)
(-0.0214108 0.0183554 -6.59976e-23)
(-0.0224036 0.0153607 2.23994e-21)
(-0.0232711 0.0123082 2.19676e-21)
(-0.0239749 0.00921524 1.15357e-21)
(-0.024487 0.00611123 -6.75801e-26)
(-0.0247902 0.00302738 3.72761e-23)
(-0.0248826 -4.01246e-06 -6.06741e-22)
(-0.0247776 -0.00295158 0)
(-0.0245052 -0.00578619 0)
(-0.0241146 -0.00848255 -3.97811e-23)
(-0.0236833 -0.0110211 3.80379e-21)
(-0.0233221 -0.0133877 1.2025e-22)
(-0.0232192 -0.0155734 -2.65009e-22)
(-0.0236318 -0.0175566 7.76316e-23)
(-0.025079 -0.019282 -7.86891e-23)
(-0.0281242 -0.0205712 -2.44236e-21)
(-0.0340152 -0.0210644 -1.98303e-21)
(-0.0431432 -0.0202093 4.28398e-23)
(-0.0564628 -0.0171991 -2.43687e-23)
(-0.0727175 -0.0125828 2.02353e-22)
(-0.0859792 -0.00557689 1.37003e-23)
(-0.107134 -0.00135756 -9.44982e-24)
(-0.0143462 0.059992 6.51582e-23)
(-0.0122801 0.0520478 -2.13699e-21)
(-0.0144243 0.0451654 0)
(-0.0153244 0.0391138 0)
(-0.0175898 0.0342963 0)
(-0.019328 0.0302754 2.17016e-21)
(-0.02102 0.0268286 0)
(-0.0224309 0.0235786 2.21429e-21)
(-0.0237071 0.0203616 0)
(-0.0248429 0.0170846 -2.27095e-21)
(-0.0258361 0.0137379 -3.55216e-23)
(-0.026655 0.0103372 -1.12196e-21)
(-0.0272733 0.00691332 1.21691e-21)
(-0.0276746 0.00350044 -6.32845e-22)
(-0.0278582 0.000134251 3.02953e-22)
(-0.0278401 -0.00315046 3.01239e-22)
(-0.0276559 -0.00632111 6.0416e-22)
(-0.0273641 -0.00934878 0)
(-0.0270574 -0.0122096 -1.25013e-21)
(-0.0268701 -0.0148829 0)
(-0.0270253 -0.017348 -2.58902e-21)
(-0.0278299 -0.0195602 2.39548e-21)
(-0.0298576 -0.0214226 0)
(-0.0337014 -0.0226902 1.9827e-21)
(-0.0405582 -0.0229422 2.08092e-21)
(-0.0505227 -0.0215817 0)
(-0.0643662 -0.0179618 4.23049e-24)
(-0.0799347 -0.0127327 -1.95737e-22)
(-0.0929836 -0.00557906 -1.12416e-21)
(-0.111775 -0.0012499 -6.33425e-24)
(-0.0159224 0.0638729 -6.30719e-23)
(-0.0137787 0.0559677 3.35545e-21)
(-0.015855 0.0490208 0)
(-0.016801 0.0427769 2.12569e-21)
(-0.0191448 0.0376654 7.14934e-23)
(-0.0210835 0.033314 6.6476e-23)
(-0.0229924 0.0295423 -2.20455e-21)
(-0.0246206 0.02599 -2.23929e-21)
(-0.0260831 0.022482 -7.33213e-23)
(-0.0273809 0.0189127 2.35662e-21)
(-0.0285172 0.0152627 -1.0992e-22)
(-0.0294671 0.0115451 3.71018e-23)
(-0.0302073 0.00779142 -1.18451e-21)
(-0.0307234 0.00403858 5.97502e-22)
(-0.0310167 0.000325783 2.97226e-22)
(-0.0311068 -0.00330833 -3.02188e-22)
(-0.0310361 -0.00682709 -5.27415e-23)
(-0.0308739 -0.0101969 1.212e-21)
(-0.0307293 -0.0133878 1.16458e-21)
(-0.030762 -0.0163698 2.29586e-21)
(-0.0312298 -0.0191056 -7.3259e-23)
(-0.0324845 -0.0215212 -2.2694e-21)
(-0.0351377 -0.0234727 1.96294e-21)
(-0.0397787 -0.0246503 -3.65626e-21)
(-0.0475019 -0.0245889 0)
(-0.0580939 -0.0226877 -1.85644e-23)
(-0.0721567 -0.0184891 2.01433e-23)
(-0.0868457 -0.0127549 -3.23903e-23)
(-0.0995125 -0.00553445 2.23712e-21)
(-0.115957 -0.00112712 0)
(-0.0175926 0.067776 0)
(-0.0153794 0.0599318 -4.71716e-21)
(-0.0173823 0.0529473 3.59097e-23)
(-0.0183673 0.0465422 -2.23796e-21)
(-0.0207706 0.0411628 -6.66791e-23)
(-0.0228919 0.0364924 -2.22728e-21)
(-0.0250118 0.0323932 2.37037e-21)
(-0.0268647 0.0285288 -2.47227e-21)
(-0.028529 0.0247188 2.39558e-21)
(-0.0300064 0.0208473 -7.29149e-23)
(-0.031303 0.0168857 3.88499e-23)
(-0.0324003 0.012843 1.23248e-21)
(-0.0332787 0.00875099 1.15416e-21)
(-0.0339269 0.00464919 3.74232e-23)
(-0.0343492 0.000580387 -2.98162e-22)
(-0.0345698 -0.00341249 0)
(-0.0346388 -0.0072879 -5.93074e-22)
(-0.0346373 -0.0110063 -2.31436e-21)
(-0.0346922 -0.0145295 -1.97722e-23)
(-0.0349887 -0.0178148 -2.2724e-21)
(-0.0358172 -0.0208041 -6.79485e-23)
(-0.0375656 -0.0233888 6.40229e-23)
(-0.040863 -0.0253759 -2.70065e-22)
(-0.0462622 -0.0263987 1.72408e-21)
(-0.0547158 -0.0259687 -4.21673e-23)
(-0.0657114 -0.0235197 5.50177e-24)
(-0.0797176 -0.0187996 -1.80246e-22)
(-0.0933797 -0.01267 4.14324e-23)
(-0.105533 -0.00545017 -2.1374e-21)
(-0.119659 -0.00099017 0)
(-0.0193552 0.0716903 0)
(-0.0170818 0.0639298 4.92502e-21)
(-0.0190059 0.0569336 0)
(-0.0200252 0.0503973 0)
(-0.0224716 0.0447773 -7.00788e-23)
(-0.0247569 0.0398032 7.76097e-23)
(-0.0270782 0.0353781 7.4148e-23)
(-0.0291579 0.0311949 2.33969e-21)
(-0.0310353 0.0270733 -2.48881e-21)
(-0.0327078 0.0228907 2.53983e-21)
(-0.034181 0.0186095 -2.40473e-21)
(-0.0354419 0.0142347 -2.85852e-23)
(-0.0364751 0.00979748 3.79714e-23)
(-0.0372729 0.00533978 -6.0965e-22)
(-0.0378436 0.000908148 -3.0926e-22)
(-0.0382171 -0.0034497 -1.79805e-23)
(-0.0384518 -0.00768642 -1.75635e-23)
(-0.0386416 -0.011755 8.42962e-23)
(-0.0389314 -0.0156069 -1.11889e-21)
(-0.0395308 -0.0191834 6.54636e-23)
(-0.0407582 -0.0224014 -6.3273e-23)
(-0.0430261 -0.0251149 -5.62989e-23)
(-0.0469589 -0.027083 -2.38505e-22)
(-0.0530439 -0.0278944 -1.07358e-21)
(-0.0620662 -0.0270611 0)
(-0.0732417 -0.0240835 0)
(-0.0869517 -0.0189167 1.67198e-22)
(-0.0994803 -0.0124964 1.92246e-21)
(-0.111019 -0.00533141 1.04783e-21)
(-0.12286 -0.000839961 3.66189e-24)
(-0.0212075 0.0756042 -2.36786e-22)
(-0.0188847 0.0679502 -2.56131e-21)
(-0.0207243 0.0609677 0)
(-0.0217747 0.0543292 0)
(-0.0242501 0.0484963 0)
(-0.0266812 0.0432369 7.67745e-23)
(-0.0291915 0.038492 -1.60463e-22)
(-0.0314957 0.0339864 4.99376e-24)
(-0.0335934 0.0295459 2.56853e-21)
(-0.0354733 0.0250442 -2.39692e-21)
(-0.0371378 0.0204365 2.45469e-21)
(-0.0385776 0.0157236 -1.25247e-21)
(-0.0397816 0.010936 -1.16284e-21)
(-0.0407462 0.00611767 4.37411e-24)
(-0.0414844 0.00131912 4.74035e-24)
(-0.0420325 -0.00340656 2.79023e-22)
(-0.0424579 -0.0080052 0)
(-0.0428676 -0.0124208 1.09414e-21)
(-0.0434238 -0.0165919 0)
(-0.0443581 -0.0204411 0)
(-0.0460102 -0.0238574 0)
(-0.0488039 -0.0266563 -4.77589e-23)
(-0.0533369 -0.028554 -2.68434e-22)
(-0.0600079 -0.0291098 1.80558e-21)
(-0.0694232 -0.0278598 2.82309e-22)
(-0.0805667 -0.0243944 -7.07466e-22)
(-0.0937792 -0.0188651 -9.43642e-22)
(-0.105102 -0.0122495 -1.91855e-21)
(-0.115945 -0.00518192 9.29462e-22)
(-0.125541 -0.000677453 4.39536e-22)
(-0.0231452 0.0795047 2.40546e-22)
(-0.0207856 0.0719805 0)
(-0.022535 0.0650369 1.96975e-21)
(-0.0236143 0.0583242 0)
(-0.0261066 0.0523063 0)
(-0.0286663 0.0467824 2.70537e-21)
(-0.0313512 0.0417271 0)
(-0.0338737 0.0368992 0)
(-0.0361947 0.0321348 6.97142e-23)
(-0.0382911 0.0273079 0)
(-0.0401591 0.0223681 2.58406e-21)
(-0.0417918 0.0173127 -7.7387e-23)
(-0.0431814 0.0121712 3.8525e-23)
(-0.044329 0.00698972 5.90135e-22)
(-0.0452526 0.00182297 5.09797e-24)
(-0.0459956 -0.00327001 -8.04339e-24)
(-0.0466347 -0.00822712 0)
(-0.0472893 -0.0129817 0)
(-0.0481381 -0.0174576 9.2145e-22)
(-0.0494302 -0.0215559 0)
(-0.0515186 -0.0251361 0)
(-0.0548244 -0.027977 -1.22119e-21)
(-0.0598989 -0.0297593 -1.19309e-21)
(-0.0670362 -0.0300302 -4.02438e-22)
(-0.0766651 -0.0283699 -2.86345e-22)
(-0.087584 -0.0244739 7.07097e-22)
(-0.100136 -0.0186691 9.82819e-22)
(-0.110208 -0.0119415 9.83981e-24)
(-0.12029 -0.0050044 -1.02734e-21)
(-0.127682 -0.000503726 -4.63026e-22)
(-0.0251626 0.0833777 0)
(-0.0227808 0.0760069 0)
(-0.0244343 0.0691273 -2.0257e-21)
(-0.0255408 0.0623678 0)
(-0.0280398 0.0561923 2.72957e-21)
(-0.0307117 0.0504266 -2.65972e-21)
(-0.0335559 0.0450738 -2.83581e-21)
(-0.0362872 0.0399272 -8.93882e-23)
(-0.0388303 0.0348368 -2.75573e-21)
(-0.0411487 0.0296803 -2.67312e-21)
(-0.0432298 0.0244045 -2.51485e-21)
(-0.045067 0.0190037 -1.18001e-21)
(-0.0466554 0.0135068 -3.88674e-23)
(-0.0480005 0.00796198 -5.64626e-22)
(-0.0491258 0.00242859 2.6568e-22)
(-0.0500817 -0.00302774 -5.53235e-22)
(-0.0509541 -0.00833596 5.13569e-22)
(-0.0518744 -0.0134173 -9.53971e-22)
(-0.0530347 -0.0181789 -5.20265e-23)
(-0.0546973 -0.022499 0)
(-0.0572189 -0.0262072 -3.91615e-23)
(-0.0610041 -0.0290493 1.29686e-21)
(-0.0665419 -0.0306803 -5.65308e-22)
(-0.0740136 -0.0306521 -3.65904e-22)
(-0.0836814 -0.0286057 5.44705e-22)
(-0.094207 -0.0243467 1.63726e-21)
(-0.105969 -0.0183507 -4.25269e-23)
(-0.114765 -0.0115822 3.30126e-21)
(-0.124034 -0.00480099 9.51671e-22)
(-0.129266 -0.000320018 0)
(-0.027252 0.0872077 -1.26361e-23)
(-0.0248649 0.0800144 -1.51221e-21)
(-0.026417 0.0732239 -2.35879e-21)
(-0.0275496 0.0664442 -2.9012e-21)
(-0.0300461 0.0601384 -5.66669e-21)
(-0.0328149 0.0541545 3.05772e-21)
(-0.0358025 0.04852 2.76716e-21)
(-0.0387305 0.0430617 -8.67627e-23)
(-0.0414912 0.0376462 1.75836e-22)
(-0.0440331 0.0321585 5.36382e-21)
(-0.0463336 0.0265445 -2.6194e-21)
(-0.0483843 0.0207972 1.22293e-21)
(-0.0501823 0.0149453 0)
(-0.0517372 0.00903941 5.66761e-22)
(-0.053078 0.00314376 1.77788e-23)
(-0.0542618 -0.00266873 2.48559e-23)
(-0.0553832 -0.00831706 -5.14618e-22)
(-0.0565841 -0.0137091 9.01575e-22)
(-0.0580671 -0.0187337 -1.5852e-21)
(-0.0601014 -0.023246 1.33209e-21)
(-0.0630385 -0.0270468 1.00065e-21)
(-0.0672537 -0.0298541 -1.09797e-23)
(-0.073162 -0.0313087 5.39099e-22)
(-0.0808308 -0.030982 -4.20565e-22)
(-0.0903741 -0.0285871 -5.9637e-22)
(-0.100363 -0.0240382 -1.63779e-21)
(-0.111236 -0.017929 2.04573e-21)
(-0.118747 -0.0111789 -7.12309e-21)
(-0.127156 -0.00457356 -1.95225e-21)
(-0.130278 -0.000127733 0)
(-0.0294034 0.0909781 -1.42521e-23)
(-0.0270306 0.0839863 -1.46593e-23)
(-0.0284762 0.0773102 2.42441e-21)
(-0.0296341 0.0705367 -1.02002e-22)
(-0.0321199 0.0641274 -1.22923e-22)
(-0.0349712 0.05795 1.42741e-23)
(-0.0380861 0.0520518 7.14372e-24)
(-0.0411968 0.0462919 -2.84813e-21)
(-0.0441668 0.0405553 -1.82135e-22)
(-0.0469304 0.0347371 -5.52425e-21)