/*--------------------------------*- C++ -*----------------------------------*\
| =========                 |                                                 |
| \\      /  F ield         | OpenFOAM: The Open Source CFD Toolbox           |
|  \\    /   O peration     | Version:  5.x                                   |
|   \\  /    A nd           | Web:      www.OpenFOAM.org                      |
|    \\/     M anipulation  |                                                 |
\*---------------------------------------------------------------------------*/
FoamFile
{
    version     2.0;
    format      ascii;
    class       volScalarField;
    location    "0.015";
    object      p;
}
// * * * * * * * * * * * * * * * * * * * * * * * * * * * * * * * * * * * * * //

dimensions      [0 2 -2 0 0 0 0];

internalField   nonuniform List<scalar> 
7200
(
-8.69229e-05
0.063623
0.176304
0.187092
0.441526
0.148455
1.13066
-0.773014
3.90128
-6.17611
16.5248
-31.0874
61.591
-86.9846
77.4003
0.00140833
0.0694216
0.183658
0.20555
0.44284
0.212382
1.04618
-0.462852
3.25627
-4.51234
12.94
-23.705
49.7874
-73.7726
71.646
0.00298749
0.0743252
0.191535
0.219812
0.451419
0.252607
1.01589
-0.294316
2.94467
-3.63179
11.0253
-19.4041
42.2625
-64.4196
67.6297
0.00445445
0.0793344
0.19917
0.234125
0.46043
0.289986
0.995668
-0.156628
2.71927
-2.97633
9.66051
-16.268
36.5466
-56.7477
63.9667
0.00590532
0.0846978
0.206928
0.249204
0.470024
0.327369
0.980837
-0.0320022
2.53778
-2.43078
8.57079
-13.7279
31.8171
-50.0119
60.5536
0.00737214
0.0903586
0.214942
0.264817
0.480627
0.36416
0.97201
0.0799717
2.396
-1.98084
7.71533
-11.6916
27.9676
-44.1401
57.4078
0.0088622
0.0962697
0.223247
0.280838
0.492308
0.400292
0.968651
0.181441
2.28639
-1.60663
7.04751
-10.0619
24.8842
-39.066
54.5065
0.0103823
0.102408
0.231872
0.297232
0.505061
0.435949
0.969979
0.27497
2.20145
-1.28797
6.5216
-8.73736
22.4264
-34.6931
51.8218
0.011939
0.108753
0.240835
0.313976
0.518873
0.471289
0.975393
0.362474
2.13584
-1.00969
6.10379
-7.63898
20.4705
-30.9315
49.3303
0.0135378
0.115287
0.250145
0.331051
0.533717
0.506436
0.984432
0.445378
2.08588
-0.760542
5.76936
-6.70738
18.9122
-27.7018
47.0125
0.0151824
0.121993
0.259802
0.348438
0.549558
0.54149
0.99673
0.524791
2.04902
-0.532265
5.49983
-5.89839
17.6631
-24.9327
44.851
0.0168747
0.128853
0.269799
0.366117
0.566352
0.576529
1.01199
0.601582
2.02346
-0.318959
5.28122
-5.18006
16.649
-22.5599
42.8304
0.0186149
0.135849
0.280119
0.384065
0.584045
0.611608
1.02998
0.676429
2.00791
-0.116641
5.10278
-4.53028
15.8091
-20.5257
40.9369
0.0204014
0.142964
0.290741
0.402253
0.602577
0.646761
1.05047
0.749829
2.00127
0.0771605
4.95604
-3.93452
15.0943
-18.7785
39.1582
0.0222306
0.150176
0.301635
0.420645
0.621873
0.681992
1.07326
0.822109
2.00254
0.263739
4.8341
-3.38386
14.4662
-17.2729
37.4831
0.0240974
0.157461
0.312764
0.439197
0.641845
0.717275
1.09811
0.89342
2.01068
0.443514
4.73109
-2.87336
13.8954
-15.9689
35.9017
0.0259948
0.164795
0.324082
0.457853
0.662388
0.752548
1.12474
0.96374
2.02456
0.616219
4.64205
-2.40076
13.3603
-14.832
34.405
0.0279145
0.172147
0.335538
0.476543
0.683378
0.787704
1.15283
1.03288
2.04294
0.781114
4.56261
-1.96532
12.8458
-13.8324
32.9847
0.029846
0.179484
0.347067
0.495184
0.704669
0.822595
1.18201
1.10051
2.06447
0.937209
4.48893
-1.56702
12.3421
-12.9452
31.6337
0.0317778
0.186767
0.358601
0.51368
0.72609
0.857028
1.21182
1.16615
2.08778
1.08338
4.41769
-1.20599
11.8436
-12.1494
30.3453
0.0336963
0.193956
0.370059
0.531918
0.74745
0.890766
1.24178
1.22926
2.11146
1.21848
4.34609
-0.882124
11.3476
-11.428
29.1138
0.0355871
0.201003
0.381354
0.549773
0.768533
0.923533
1.27135
1.28919
2.13415
1.34147
4.27186
-0.594849
10.8539
-10.767
27.9341
0.0374339
0.207859
0.39239
0.567104
0.789107
0.955025
1.29997
1.34529
2.15455
1.45147
4.19327
-0.343029
10.3635
-10.1554
26.8017
0.0392199
0.214471
0.403066
0.583762
0.808927
0.984918
1.32707
1.39691
2.17152
1.54784
4.10914
-0.124978
9.87866
-9.58487
25.7126
0.0409272
0.220783
0.413276
0.599591
0.827737
1.01288
1.3521
1.44345
2.18404
1.63018
4.01877
0.0614702
9.40174
-9.04884
24.6635
0.0425373
0.226738
0.422912
0.614429
0.845281
1.03857
1.37452
1.48437
2.19131
1.69838
3.92193
0.218847
8.9353
-8.54257
23.6515
0.0440318
0.232278
0.431865
0.628117
0.861311
1.06168
1.39387
1.51923
2.19272
1.75259
3.81879
0.34992
8.48167
-8.0626
22.6742
0.0453923
0.237345
0.440029
0.640499
0.875589
1.08192
1.40971
1.5477
2.18786
1.7932
3.70983
0.45756
8.04284
-7.60654
21.7295
0.046601
0.241886
0.447301
0.651429
0.887899
1.09903
1.42172
1.56957
2.17654
1.82082
3.59578
0.544618
7.62033
-7.17271
20.8158
0.0476411
0.245849
0.453587
0.660774
0.898048
1.11282
1.42963
1.58474
2.15875
1.83627
3.47754
0.613828
7.21522
-6.76003
19.9316
0.0484973
0.249187
0.458804
0.668419
0.905878
1.12311
1.43328
1.59324
2.13462
1.84047
3.35611
0.667733
6.82813
-6.36774
19.0759
0.0491559
0.25186
0.462878
0.674267
0.911263
1.12981
1.43257
1.59521
2.10446
1.83446
3.23252
0.708627
6.45926
-5.99531
18.2477
0.0496052
0.253833
0.46575
0.678247
0.914117
1.13287
1.42751
1.59089
2.06868
1.81932
3.10776
0.738536
6.1085
-5.64231
17.4464
0.049836
0.25508
0.467376
0.68031
0.91439
1.1323
1.41818
1.58062
2.02776
1.79615
2.98278
0.759208
5.77547
-5.30834
16.6714
0.0498416
0.255583
0.467729
0.680433
0.912072
1.12816
1.4047
1.56477
1.98226
1.76605
2.85842
0.772125
5.45956
-4.99299
15.9221
0.0496178
0.255334
0.466796
0.678618
0.907192
1.12055
1.3873
1.54381
1.93277
1.73004
2.73542
0.778524
5.16009
-4.69576
15.1983
0.0491632
0.254332
0.464581
0.674893
0.899811
1.10964
1.36622
1.51822
1.87988
1.68911
2.6144
0.779428
4.87625
-4.41613
14.4994
0.0484792
0.252587
0.461105
0.669307
0.890024
1.0956
1.34176
1.4885
1.8242
1.64417
2.49586
0.775678
4.60723
-4.15344
13.8253
0.0475696
0.250114
0.456404
0.661932
0.877952
1.07866
1.31424
1.45516
1.7663
1.59602
2.38019
0.767968
4.35223
-3.90703
13.1756
0.0464409
0.246938
0.450526
0.652859
0.863741
1.05906
1.28399
1.41872
1.70671
1.54541
2.26769
0.756875
4.11048
-3.67613
12.5498
0.0451018
0.243094
0.443532
0.642194
0.847557
1.03706
1.25136
1.37966
1.64595
1.49298
2.15858
0.742887
3.88124
-3.45996
11.9477
0.0435633
0.238618
0.435496
0.63006
0.829581
1.01292
1.21672
1.33847
1.58448
1.43931
2.05299
0.726428
3.66385
-3.25769
11.3688
0.0418381
0.233556
0.426497
0.616588
0.810004
0.986938
1.18039
1.29559
1.52272
1.38489
1.95102
0.707873
3.45769
-3.06849
10.8126
0.0399404
0.227956
0.416626
0.601918
0.789026
0.959375
1.14271
1.25145
1.46103
1.33014
1.85273
0.687563
3.26218
-2.89152
10.2788
0.0378859
0.221873
0.405976
0.586198
0.766848
0.930508
1.10402
1.20643
1.39976
1.27545
1.75812
0.665814
3.07681
-2.72597
9.76657
0.0356913
0.215363
0.394648
0.569577
0.743674
0.900604
1.06462
1.1609
1.33919
1.22113
1.66719
0.642923
2.90109
-2.57103
9.27548
0.0333741
0.208482
0.38274
0.552206
0.719704
0.869922
1.02479
1.11517
1.27959
1.16747
1.57993
0.61917
2.7346
-2.42592
8.80485
0.0309522
0.201291
0.370357
0.534235
0.695137
0.838707
0.9848
1.06955
1.22118
1.11471
1.49631
0.594821
2.57689
-2.28988
8.35401
0.0284441
0.19385
0.357601
0.515814
0.670161
0.807192
0.94491
1.0243
1.16416
1.06305
1.41629
0.570127
2.42759
-2.16222
7.92223
0.0258681
0.186218
0.344573
0.497086
0.644961
0.775599
0.905344
0.97966
1.10869
1.01269
1.33983
0.545324
2.28631
-2.04224
7.50877
0.0232426
0.178455
0.331372
0.478192
0.619711
0.744133
0.866315
0.935855
1.05492
0.963784
1.26689
0.520632
2.15268
-1.92932
7.11286
0.0205857
0.170618
0.318094
0.459266
0.594576
0.712985
0.828015
0.893074
1.00299
0.916471
1.19743
0.496253
2.02635
-1.82284
6.73371
0.0179153
0.162764
0.304833
0.440436
0.569713
0.682333
0.790621
0.851491
0.953011
0.870877
1.1314
0.472373
1.90698
-1.72223
6.37053
0.0152487
0.154946
0.291679
0.421824
0.545267
0.652343
0.754291
0.81126
0.905071
0.827109
1.06875
0.44916
1.79423
-1.62698
6.0225
0.0126025
0.147217
0.278715
0.403546
0.521376
0.623164
0.719171
0.772519
0.859257
0.785261
1.00944
0.426767
1.68777
-1.53656
5.68884
0.00999312
0.139627
0.266023
0.385709
0.498166
0.594936
0.685392
0.735391
0.815642
0.745416
0.953421
0.405328
1.5873
-1.45053
5.36873
0.00743594
0.132223
0.25368
0.368415
0.475756
0.567787
0.653073
0.699988
0.774291
0.707647
0.900639
0.384965
1.49251
-1.36845
5.06139
0.0049459
0.125051
0.241757
0.35176
0.454255
0.541834
0.622322
0.666408
0.73526
0.672019
0.85105
0.365787
1.40311
-1.28991
4.76607
0.00253721
0.118152
0.230323
0.335832
0.433766
0.517185
0.593239
0.634741
0.6986
0.638589
0.80461
0.347891
1.31883
-1.21454
4.48201
0.00022342
0.111567
0.21944
0.320714
0.414382
0.49394
0.565913
0.605071
0.664356
0.607411
0.761278
0.331364
1.23941
-1.14198
4.20852
-0.00198257
0.105333
0.20917
0.306484
0.396192
0.47219
0.54043
0.577472
0.632573
0.578534
0.721019
0.316288
1.16461
-1.07193
3.94492
-0.0040685
0.0994866
0.199567
0.293213
0.379278
0.452022
0.516866
0.552017
0.603293
0.552007
0.683804
0.30274
1.09421
-1.00409
3.69061
-0.00602269
0.0940609
0.190684
0.28097
0.363715
0.433515
0.495295
0.528773
0.576558
0.52788
0.649611
0.290792
1.02804
-0.938186
3.445
-0.00783408
0.0890872
0.18257
0.269819
0.349576
0.416746
0.475788
0.507807
0.552414
0.506203
0.61843
0.280519
0.965921
-0.873986
3.20761
-0.00949213
0.0845952
0.175272
0.259817
0.336928
0.401786
0.458414
0.489186
0.530906
0.487032
0.590262
0.271997
0.907732
-0.811275
2.97802
-0.0109869
0.0806127
0.168833
0.251023
0.325836
0.388705
0.443238
0.472974
0.512087
0.470425
0.565122
0.265304
0.853376
-0.74987
2.75588
-0.0123088
0.0771658
0.163294
0.243489
0.316362
0.377568
0.430328
0.459239
0.496014
0.456451
0.543038
0.260527
0.802796
-0.689615
2.54097
-0.013449
0.074279
0.158694
0.237265
0.308562
0.368441
0.419748
0.448052
0.482749
0.445185
0.524056
0.25776
0.755977
-0.630385
2.33319
-0.0143991
0.0719753
0.155068
0.232398
0.302494
0.361387
0.411566
0.439485
0.472362
0.436709
0.508238
0.257105
0.712952
-0.57209
2.13255
-0.0151511
0.0702759
0.15245
0.228934
0.298211
0.356467
0.405848
0.433612
0.464928
0.431117
0.495666
0.258678
0.6738
-0.514675
1.93926
-0.0156977
0.0692006
0.150871
0.226913
0.295765
0.353742
0.402662
0.430514
0.460531
0.428513
0.486438
0.262605
0.638656
-0.458126
1.75371
-0.0160323
0.0687672
0.15036
0.226375
0.295202
0.35327
0.402074
0.430269
0.45926
0.429009
0.48067
0.269029
0.607707
-0.402478
1.57652
-0.0161489
0.0689919
0.150942
0.227356
0.29657
0.355107
0.404153
0.432962
0.461209
0.432728
0.478495
0.278102
0.581199
-0.347823
1.4086
-0.0160421
0.0698888
0.152641
0.229888
0.299909
0.359308
0.408964
0.438677
0.466478
0.439801
0.480065
0.289997
0.559438
-0.294321
1.25117
-0.0157075
0.07147
0.155478
0.233999
0.30526
0.365923
0.416571
0.447498
0.475171
0.450367
0.485544
0.304895
0.542797
-0.242239
1.10588
-0.0151428
0.0737413
0.15946
0.239706
0.312643
0.374985
0.42702
0.459491
0.48737
0.464547
0.495086
0.322965
0.531695
-0.191993
0.974816
-0.0143484
0.0766997
0.164585
0.247003
0.322056
0.386498
0.440321
0.474686
0.503118
0.482432
0.508795
0.344384
0.526504
-0.144035
0.860473
-0.0133068
0.0804016
0.170948
0.256028
0.333678
0.400686
0.456741
0.49341
0.522766
0.504481
0.527082
0.369794
0.527799
-0.0985242
0.765899
-0.0119536
0.0850636
0.178919
0.267307
0.348197
0.418394
0.477292
0.5168
0.547661
0.531981
0.551768
0.40003
0.53888
-0.0582899
0.698354
-0.0105816
0.0897536
0.186951
0.278701
0.362951
0.436441
0.498522
0.540809
0.574299
0.559692
0.581422
0.426167
0.566358
-0.0418475
0.673405
-77.519
86.8715
-61.7022
30.9725
-16.6353
6.06359
-4.0119
0.661536
-1.24157
-0.25957
-0.552399
-0.297863
-0.286789
-0.173718
-0.109559
-0.0191373
0.045021
0.158111
0.169167
0.423777
0.130815
1.11306
-0.790623
3.88372
-6.19334
16.5085
-31.1022
61.5782
-86.9943
77.3948
-71.7656
73.6581
-49.8987
23.59
-13.0509
4.39981
-3.36707
0.351378
-1.15714
-0.323517
-0.553754
-0.316363
-0.294203
-0.179622
-0.111296
-0.0174012
0.0509245
0.165525
0.187667
0.425124
0.194765
1.02859
-0.480424
3.23881
-4.52932
12.9241
-23.7192
49.7754
-73.7815
71.6412
-67.7501
64.3038
-42.3741
19.289
-11.1366
3.51914
-3.05565
0.182793
-1.12692
-0.363782
-0.562385
-0.330683
-0.30216
-0.184662
-0.113125
-0.0155707
0.0559657
0.173482
0.201987
0.433749
0.235027
0.998344
-0.311817
2.92739
-3.64845
11.0099
-19.4176
42.2514
-64.4276
67.6254
-64.0876
56.6306
-36.6587
16.1527
-9.77215
2.86349
-2.83043
0.0450205
-1.10677
-0.401216
-0.571459
-0.345067
-0.30989
-0.189825
-0.114829
-0.0138613
0.0611333
0.181215
0.216374
0.44282
0.272459
0.978188
-0.174015
2.70221
-2.99259
9.64569
-16.2808
36.5364
-56.755
63.9626
-60.675
49.8936
-31.9297
13.6123
-8.6828
2.31773
-2.64917
-0.0797238
-1.09204
-0.438674
-0.581133
-0.360233
-0.317757
-0.195351
-0.116489
-0.0121941
0.0666656
0.189089
0.231545
0.452494
0.309921
0.963456
-0.0492229
2.52102
-2.44658
8.55659
-13.7399
31.8076
-50.0185
60.5498
-57.5296
44.0207
-28.081
11.5758
-7.8277
1.86753
-2.50762
-0.19185
-1.08334
-0.47556
-0.59183
-0.375945
-0.325893
-0.201174
-0.118144
-0.0105296
0.0724994
0.197234
0.247267
0.463197
0.346817
0.954768
0.0629718
2.37958
-1.99613
7.70178
-11.7029
27.9588
-44.1462
57.4042
-54.6288
38.9457
-24.9982
9.9457
-7.16024
1.49304
-2.39827
-0.293504
-1.08013
-0.511807
-0.603621
-0.39208
-0.334331
-0.207248
-0.119809
-0.00885107
0.0785868
0.205685
0.263414
0.475
0.383084
0.951589
0.164715
2.27039
-1.62136
7.03462
-10.0725
24.8761
-39.0716
54.5032
-51.9443
34.5719
-22.5411
8.62081
-6.63469
1.17408
-2.31362
-0.387245
-1.08163
-0.5476
-0.616501
-0.408601
-0.343098
-0.213551
-0.121499
-0.00714445
0.0849057
0.214468
0.279953
0.487898
0.418906
0.95314
0.258567
2.1859
-1.30213
6.50936
-8.74733
22.4188
-34.6983
51.8186
-49.4532
30.8095
-20.5859
7.522
-6.21724
0.895475
-2.24831
-0.474986
-1.08724
-0.583098
-0.630456
-0.425487
-0.352214
-0.220064
-0.123226
-0.00539801
0.0914387
0.223605
0.296861
0.501878
0.454446
0.958819
0.346439
2.12078
-1.02325
6.09218
-7.64834
20.4635
-30.9363
49.3273
-47.1357
27.5791
-19.0282
6.58993
-5.88319
0.645993
-2.19865
-0.558148
-1.09649
-0.618424
-0.645461
-0.442717
-0.361687
-0.22677
-0.124998
-0.00360294
0.0981691
0.233103
0.31412
0.516918
0.489825
0.968161
0.429748
2.07133
-0.773516
5.75836
-6.71618
18.9056
-27.7063
47.0097
-44.9745
24.8094
-17.7797
5.78043
-5.61405
0.417368
-2.16211
-0.637836
-1.10903
-0.653676
-0.66148
-0.460273
-0.371518
-0.233654
-0.12682
-0.00175315
0.105081
0.242963
0.331711
0.532981
0.525144
0.980798
0.509596
2.035
-0.544656
5.48941
-5.90667
17.6569
-24.9369
44.8483
-42.9543
22.4361
-16.7662
5.06157
-5.39584
0.203703
-2.13688
-0.714918
-1.12455
-0.68893
-0.678468
-0.478135
-0.381697
-0.240699
-0.128697
0.00015497
0.112159
0.253178
0.349615
0.550022
0.560478
0.996431
0.586846
2.00998
-0.330784
5.27135
-5.18786
16.6432
-22.5639
42.8278
-41.0611
20.4014
-15.9268
4.41126
-5.2178
0.00101559
-2.12166
-0.790066
-1.1428
-0.724242
-0.696372
-0.496279
-0.392211
-0.247888
-0.130628
0.00212274
0.119387
0.263734
0.367808
0.567989
0.59588
1.01481
0.662167
1.99496
-0.127919
5.09342
-4.53764
15.8037
-20.5295
40.9344
-39.2828
18.6538
-15.2125
3.81496
-5.07147
-0.193164
-2.11536
-0.863778
-1.16358
-0.759642
-0.715127
-0.514676
-0.403036
-0.255203
-0.132613
0.00414931
0.126746
0.274607
0.386263
0.586817
0.631381
1.03572
0.736051
1.98884
0.0664077
4.94716
-3.94147
15.0892
-18.7821
39.1557
-37.6081
17.1478
-14.5849
3.26378
-4.94995
-0.380125
-2.11698
-0.936375
-1.18665
-0.795133
-0.734659
-0.533289
-0.414143
-0.262624
-0.134647
0.00623172
0.134216
0.285769
0.404941
0.606432
0.666983
1.05894
0.808818
1.99063
0.253487
4.82567
-3.39045
14.4614
-17.2763
37.4808
-36.0271
15.8434
-14.0145
2.75275
-4.84736
-0.560288
-2.12547
-1.00801
-1.2118
-0.830686
-0.754878
-0.552071
-0.425493
-0.270125
-0.136726
0.00836502
0.141775
0.297182
0.423797
0.626742
0.702654
1.08423
0.880614
1.99927
0.433737
4.72308
-2.8796
13.8908
-15.9722
35.8994
-34.5308
14.706
-13.4798
2.27965
-4.75874
-0.733382
-2.1397
-1.07866
-1.23873
-0.866236
-0.775677
-0.570965
-0.43704
-0.277681
-0.138842
0.0105423
0.149395
0.3088
0.442774
0.647641
0.738328
1.11131
0.951414
2.01362
0.606893
4.63443
-2.40669
13.3559
-14.8351
34.4027
-33.111
13.7061
-12.9657
1.84372
-4.67971
-0.898668
-2.15843
-1.14813
-1.26713
-0.901675
-0.79693
-0.5899
-0.44873
-0.28526
-0.140985
0.0127548
0.157047
0.320568
0.4618
0.669002
0.773896
1.13985
1.02103
2.03247
0.772214
4.55536
-1.97096
12.8416
-13.8355
32.9825
-31.7603
12.8185
-12.4624
1.44495
-4.60645
-1.05515
-2.18033
-1.21608
-1.29662
-0.936853
-0.818488
-0.608792
-0.460498
-0.292828
-0.143143
0.0149917
0.164696
0.332425
0.480792
0.690675
0.809206
1.16948
1.08912
2.05445
0.928713
4.48202
-1.5724
12.3381
-12.9482
31.6315
-30.4724
12.0223
-11.9643
1.08346
-4.53562
-1.20171
-2.20399
-1.28205
-1.32674
-0.971573
-0.840179
-0.627541
-0.472273
-0.300346
-0.145305
0.0172407
0.172305
0.344298
0.49965
0.712488
0.844062
1.19974
1.1552
2.07818
1.07527
4.4111
-1.21113
11.8397
-12.1523
30.3432
-29.2413
11.3003
-11.4687
0.759142
-4.46442
-1.33719
-2.22802
-1.34548
-1.357
-1.0056
-0.861808
-0.646034
-0.483974
-0.307768
-0.147453
0.0194875
0.179829
0.356106
0.518259
0.734245
0.878222
1.23013
1.21874
2.10227
1.21072
4.33979
-0.887049
11.3439
-11.4308
29.1117
-28.062
10.6389
-10.9754
0.471422
-4.3906
-1.46055
-2.25105
-1.40572
-1.38688
-1.03865
-0.883159
-0.66414
-0.495509
-0.315048
-0.149573
0.0217165
0.187221
0.36776
0.536492
0.75573
0.911411
1.26014
1.27909
2.12534
1.33405
4.26583
-0.599576
10.8503
-10.7697
27.932
-26.93
10.0269
-10.4855
0.219162
-4.31242
-1.57092
-2.2718
-1.46214
-1.4158
-1.07042
-0.903996
-0.681719
-0.506782
-0.322134
-0.151645
0.0239105
0.194431
0.379162
0.554208
0.776708
0.943321
1.28918
1.33559
2.14612
1.44437
4.1875
-0.347576
10.36
-10.1581
26.7996
-25.8413
9.45582
-10.0011
0.000673093
-4.22869
-1.66765
-2.2891
-1.51407
-1.44319
-1.10058
-0.924071
-0.698619
-0.51769
-0.328969
-0.15365
0.0260513
0.201404
0.390211
0.571254
0.796931
0.973627
1.31669
1.38761
2.16343
1.54103
4.1036
-0.129362
9.87525
-9.58753
25.7106
-24.7926
8.91932
-9.52462
-0.186212
-4.13874
-1.75035
-2.30195
-1.56091
-1.46849
-1.1288
-0.943128
-0.714681
-0.528123
-0.335496
-0.155569
0.0281197
0.208082
0.400798
0.587472
0.816142
1.00199
1.34211
1.43452
2.17628
1.62365
4.01345
0.0572332
9.39841
-9.05146
24.6615
-23.7809
8.41258
-9.05865
-0.344027
-4.04231
-1.81891
-2.30955
-1.60212
-1.49119
-1.15474
-0.960909
-0.729741
-0.537971
-0.341655
-0.15738
0.0300959
0.214408
0.410813
0.6027
0.834084
1.02808
1.36492
1.4758
2.18387
1.69212
3.91681
0.214744
8.93205
-8.54516
23.6495
-22.8039
7.93216
-8.60549
-0.475539
-3.93959
-1.87347
-2.31128
-1.63726
-1.51079
-1.17809
-0.977162
-0.743639
-0.547123
-0.347387
-0.159063
0.03196
0.220321
0.420146
0.616776
0.850506
1.05158
1.38463
1.511
2.18558
1.74657
3.81385
0.345938
8.47849
-8.06516
22.6722
-21.8595
7.47565
-8.16712
-0.583616
-3.83105
-1.91443
-2.30674
-1.66601
-1.52689
-1.19855
-0.991649
-0.756215
-0.55547
-0.352631
-0.160597
0.0336924
0.225763
0.428689
0.629542
0.86517
1.0722
1.40084
1.5398
2.18101
1.78741
3.70506
0.453688
8.03971
-7.60906
21.7275
-20.946
7.0414
-7.74508
-0.671108
-3.71742
-1.94241
-2.29574
-1.68814
-1.53913
-1.21588
-1.00415
-0.767323
-0.56291
-0.357332
-0.161963
0.0352738
0.230679
0.436339
0.640853
0.877858
1.08968
1.41319
1.56198
2.16996
1.81525
3.59116
0.540847
7.61726
-7.17522
20.8138
-20.062
6.62832
-7.34042
-0.740748
-3.59961
-1.95821
-2.27825
-1.70356
-1.54727
-1.22986
-1.01448
-0.776828
-0.569345
-0.361436
-0.163141
0.0366863
0.235015
0.443001
0.650573
0.888378
1.10382
1.42144
1.57744
2.15241
1.83089
3.47307
0.61015
7.2122
-6.76251
19.9296
-19.2065
6.23566
-6.95377
-0.795073
-3.47861
-1.96276
-2.25443
-1.7123
-1.55113
-1.24033
-1.02247
-0.784613
-0.574691
-0.364895
-0.164115
0.0379131
0.238723
0.448589
0.658587
0.896569
1.11446
1.42541
1.58623
2.12853
1.83528
3.35178
0.664139
6.82515
-6.3702
19.0739
-18.3785
5.86288
-6.58532
-0.836375
-3.35543
-1.95709
-2.22458
-1.71452
-1.55062
-1.2472
-1.02799
-0.790583
-0.578873
-0.367667
-0.16487
0.0389395
0.241763
0.453028
0.664797
0.902307
1.1215
1.42501
1.58847
2.09859
1.82944
3.2283
0.705111
6.45633
-5.99774
18.2457
-17.5774
5.50957
-6.23497
-0.866678
-3.23109
-1.94229
-2.18909
-1.71043
-1.54575
-1.25041
-1.03097
-0.794664
-0.581832
-0.369718
-0.165393
0.0397527
0.244098
0.45626
0.66913
0.905502
1.12488
1.42024
1.58441
2.06302
1.81447
3.10366
0.735094
6.10562
-5.64472
17.4444
-16.8025
5.17532
-5.90231
-0.887726
-3.10652
-1.91945
-2.14846
-1.70038
-1.53659
-1.24997
-1.03134
-0.796807
-0.583523
-0.37102
-0.165675
0.0403425
0.245702
0.458239
0.671539
0.906107
1.12462
1.41119
1.57438
2.0223
1.79146
2.97879
0.755835
5.77262
-5.31073
16.6694
-16.0533
4.85971
-5.58675
-0.900996
-2.98255
-1.88967
-2.10325
-1.68475
-1.52328
-1.24595
-1.02911
-0.796991
-0.583919
-0.371556
-0.165708
0.0407012
0.246556
0.458937
0.671998
0.904111
1.12078
1.39798
1.55877
1.97699
1.7615
2.85453
0.768817
5.45675
-4.99535
15.9202
-15.3296
4.56227
-5.2876
-0.907725
-2.85993
-1.85398
-2.05403
-1.664
-1.50604
-1.23845
-1.0243
-0.795218
-0.583008
-0.371317
-0.165489
0.0408239
0.24665
0.458341
0.67051
0.899542
1.11346
1.38084
1.53803
1.92768
1.72563
2.73163
0.775278
5.15731
-4.69811
15.1963
-14.6308
4.28245
-5.00405
-0.908931
-2.73927
-1.81336
-2.00142
-1.6386
-1.48511
-1.22762
-1.01698
-0.791516
-0.580796
-0.370304
-0.165018
0.0407084
0.245983
0.456454
0.667102
0.892461
1.10282
1.36001
1.51265
1.87497
1.68483
2.6107
0.776241
4.87351
-4.41845
14.4975
-13.9567
4.01962
-4.73529
-0.905454
-2.62106
-1.7687
-1.946
-1.60907
-1.46078
-1.21367
-1.00723
-0.785937
-0.577304
-0.368527
-0.164297
0.0403554
0.244564
0.453298
0.661823
0.882963
1.08905
1.33578
1.48313
1.81945
1.64001
2.49224
0.772548
4.60453
-4.15575
13.8234
-13.307
3.77308
-4.48053
-0.897987
-2.50571
-1.72082
-1.88834
-1.57591
-1.43338
-1.1968
-0.995184
-0.778554
-0.57257
-0.366006
-0.163332
0.0397683
0.242409
0.448906
0.654745
0.871169
1.07236
1.30848
1.44998
1.7617
1.59198
2.37666
0.764894
4.34957
-3.90931
13.1736
-12.6812
3.5421
-4.23898
-0.887104
-2.39349
-1.67046
-1.82899
-1.53964
-1.40325
-1.17726
-0.980989
-0.769459
-0.566644
-0.362766
-0.162131
0.0389531
0.239543
0.443328
0.645958
0.857227
1.053
1.27845
1.41372
1.70226
1.54148
2.26424
0.753855
4.10785
-3.67838
12.5479
-12.0791
3.32587
-4.00991
-0.873295
-2.28464
-1.61826
-1.76845
-1.50075
-1.37074
-1.15531
-0.964812
-0.758762
-0.55959
-0.358843
-0.160706
0.0379182
0.235997
0.436624
0.63557
0.8413
1.03124
1.24603
1.37484
1.64164
1.48916
2.1552
0.739921
3.87865
-3.46219
11.9458
-11.5001
3.12357
-3.79265
-0.856982
-2.17929
-1.5648
-1.70719
-1.4597
-1.33619
-1.13122
-0.946834
-0.746586
-0.551484
-0.354279
-0.159071
0.0366742
0.23181
0.428867
0.623701
0.823571
1.00733
1.21157
1.33381
1.5803
1.43558
2.04969
0.723514
3.6613
-3.25989
11.3669
-10.9439
2.93439
-3.58659
-0.838539
-2.07752
-1.51056
-1.64561
-1.41696
-1.29996
-1.10527
-0.92725
-0.733066
-0.542409
-0.349121
-0.157241
0.0352336
0.227027
0.420138
0.610484
0.80423
0.981554
1.17543
1.29109
1.51866
1.38126
1.94779
0.705011
3.45517
-3.07067
10.8108
-10.41
2.75747
-3.39116
-0.818307
-1.9794
-1.45597
-1.58409
-1.37295
-1.26237
-1.07774
-0.90626
-0.718346
-0.532458
-0.343422
-0.155234
0.0336105
0.221697
0.410527
0.59606
0.783478
0.954194
1.13794
1.2471
1.45709
1.3266
1.84957
0.684752
3.2597
-2.89368
10.2769
-9.89766
2.59199
-3.20584
-0.796604
-1.88493
-1.40141
-1.52297
-1.32804
-1.22376
-1.0489
-0.88407
-0.702574
-0.521727
-0.337238
-0.153069
0.0318205
0.215873
0.400126
0.580575
0.761517
0.925522
1.09941
1.20222
1.39594
1.272
1.75502
0.663054
3.07436
-2.7281
9.76474
-9.40644
2.43715
-3.03014
-0.773725
-1.79412
-1.3472
-1.46253
-1.28261
-1.18442
-1.01903
-0.860883
-0.685903
-0.51032
-0.330629
-0.150767
0.0298803
0.209612
0.389037
0.564179
0.738551
0.895804
1.06017
1.15682
1.33548
1.21777
1.66417
0.640212
2.89869
-2.57313
9.27367
-8.93566
2.29217
-2.86363
-0.749953
-1.70694
-1.29362
-1.40304
-1.23697
-1.14466
-0.988373
-0.836904
-0.668486
-0.498339
-0.323656
-0.148349
0.0278072
0.20297
0.377359
0.547024
0.714779
0.865299
1.02049
1.11122
1.27599
1.16419
1.57697
0.616508
2.73223
-2.42799
8.80306
-8.48465
2.1563
-2.70588
-0.725553
-1.62336
-1.24091
-1.34472
-1.19142
-1.10473
-0.957184
-0.81233
-0.650477
-0.485892
-0.316382
-0.145835
0.0256195
0.196008
0.365195
0.529259
0.690401
0.834252
0.980655
1.06572
1.21768
1.11151
1.49341
0.592208
2.57456
-2.29193
8.35223
-8.05268
2.02883
-2.55651
-0.700778
-1.54336
-1.18929
-1.28777
-1.14623
-1.0649
-0.925697
-0.787353
-0.632025
-0.473082
-0.308871
-0.143249
0.0233354
0.188786
0.352649
0.511035
0.665606
0.802899
0.940905
1.02059
1.16075
1.05994
1.41345
0.567562
2.42529
-2.16424
7.92046
-7.63901
1.90907
-2.41513
-0.675864
-1.4669
-1.13893
-1.23235
-1.10165
-1.02538
-0.894133
-0.76216
-0.613279
-0.460014
-0.301185
-0.140611
0.0209737
0.181363
0.339821
0.492495
0.640578
0.77146
0.901473
0.976068
1.10537
1.00965
1.33705
0.542806
2.28405
-2.04424
7.50702
-7.24288
1.7964
-2.28138
-0.651033
-1.39393
-1.09
-1.17863
-1.05788
-0.986401
-0.862698
-0.736925
-0.594379
-0.44679
-0.293385
-0.137943
0.0185527
0.1738
0.326811
0.473779
0.615491
0.74014
0.862571
0.932371
1.0517
0.960817
1.26417
0.518159
2.15045
-1.93129
7.11112
-6.86349
1.69019
-2.15491
-0.626487
-1.32441
-1.04265
-1.12671
-1.01513
-0.948144
-0.831587
-0.711816
-0.575463
-0.433509
-0.285534
-0.135266
0.0160909
0.166153
0.313715
0.455023
0.590512
0.709131
0.824393
0.889694
0.999858
0.913575
1.19477
0.493825
2.02416
-1.82479
6.73199
-6.50005
1.58988
-2.03537
-0.602415
-1.25829
-0.996994
-1.07673
-0.97357
-0.91079
-0.800977
-0.68699
-0.55666
-0.420265
-0.277688
-0.132601
0.0136061
0.15848
0.300628
0.436355
0.565797
0.678612
0.787114
0.848209
0.949958
0.868049
1.12879
0.469989
1.90482
-1.72416
6.36883
-6.15175
1.49495
-1.92243
-0.578985
-1.19554
-0.953141
-1.02877
-0.93335
-0.8745
-0.771033
-0.662594
-0.538094
-0.40715
-0.269904
-0.129965
0.0111158
0.150834
0.287637
0.417898
0.541492
0.648747
0.750894
0.808072
0.902096
0.824346
1.0662
0.446819
1.7921
-1.62888
6.02082
-5.8178
1.40488
-1.81576
-0.556351
-1.1361
-0.91119
-0.982926
-0.894611
-0.839418
-0.741909
-0.638767
-0.51988
-0.39425
-0.262237
-0.127379
0.00863722
0.143269
0.27483
0.399765
0.517734
0.619688
0.715879
0.769421
0.856358
0.782561
1.00694
0.424466
1.68568
-1.53845
5.68717
-5.49739
1.31921
-1.71506
-0.53465
-1.07993
-0.871225
-0.939267
-0.857479
-0.805677
-0.713742
-0.615635
-0.502129
-0.381647
-0.254737
-0.12486
0.00618656
0.135834
0.262286
0.382067
0.494651
0.591574
0.6822
0.732379
0.812816
0.742777
0.95097
0.403067
1.58524
-1.45239
5.36707
-5.18974
1.23751
-1.62002
-0.514006
-1.02697
-0.833319
-0.897859
-0.822066
-0.773397
-0.686664
-0.593319
-0.484943
-0.369419
-0.247452
-0.122424
0.00377965
0.128577
0.250083
0.364904
0.472361
0.564532
0.649975
0.697057
0.771534
0.705066
0.898235
0.382743
1.49048
-1.37029
5.05975
-4.89409
1.15938
-1.53035
-0.494527
-0.977198
-0.797539
-0.85876
-0.788471
-0.742688
-0.66079
-0.571928
-0.468417
-0.357639
-0.240429
-0.120087
0.0014316
0.121542
0.238293
0.348373
0.450974
0.538681
0.619314
0.663555
0.732569
0.669493
0.848692
0.363602
1.40111
-1.29173
4.76444
-4.6097
1.08442
-1.44579
-0.476312
-0.930555
-0.763944
-0.822023
-0.756786
-0.713649
-0.636231
-0.551565
-0.452641
-0.346374
-0.23371
-0.117864
-0.000843157
0.114774
0.226983
0.332561
0.430592
0.514128
0.590316
0.631962
0.695971
0.636115
0.802296
0.345741
1.31685
-1.21633
4.4804
-4.33586
1.01231
-1.36607
-0.459452
-0.887006
-0.73259
-0.787696
-0.727095
-0.686371
-0.613085
-0.532325
-0.437697
-0.335688
-0.227336
-0.115768
-0.00303083
0.108312
0.216218
0.317553
0.411309
0.490974
0.56307
0.602361
0.661787
0.604987
0.759006
0.329248
1.23746
-1.14376
4.20692
-4.07191
0.942708
-1.29096
-0.444029
-0.846518
-0.703528
-0.755822
-0.699474
-0.66094
-0.591446
-0.514295
-0.423664
-0.325641
-0.221343
-0.113811
-0.00511832
0.102194
0.206058
0.303427
0.393214
0.46931
0.537662
0.574828
0.63006
0.576158
0.718786
0.314205
1.16268
-1.07369
3.94333
-3.81722
0.875329
-1.22025
-0.43012
-0.809062
-0.676808
-0.726447
-0.673998
-0.637435
-0.5714
-0.497558
-0.410613
-0.316288
-0.215766
-0.112005
-0.00709312
0.0964563
0.196559
0.290253
0.376388
0.449222
0.514169
0.549434
0.600833
0.549677
0.681608
0.300687
1.09231
-1.00583
3.68903
-3.57124
0.809906
-1.15374
-0.417802
-0.774621
-0.652481
-0.699615
-0.650734
-0.615929
-0.553028
-0.48219
-0.398611
-0.307682
-0.210639
-0.110361
-0.00894336
0.091132
0.187773
0.278101
0.360909
0.43079
0.492665
0.526249
0.574148
0.525592
0.647451
0.288768
1.02616
-0.93991
3.44344
-3.33346
0.746196
-1.09129
-0.40715
-0.743184
-0.6306
-0.675371
-0.629752
-0.596494
-0.536405
-0.468262
-0.387722
-0.299869
-0.205992
-0.108889
-0.0106578
0.0862531
0.17975
0.267035
0.346848
0.414092
0.473221
0.505338
0.550051
0.503955
0.616303
0.278523
0.964064
-0.875694
3.20606
-3.10347
0.683987
-1.03275
-0.398239
-0.714754
-0.611221
-0.653764
-0.611117
-0.5792
-0.521604
-0.455843
-0.378004
-0.292896
-0.201853
-0.107597
-0.0122256
0.0818492
0.172536
0.257113
0.334273
0.399198
0.455905
0.486767
0.528587
0.48482
0.588167
0.270026
0.905895
-0.812968
2.97647
-2.88093
0.623092
-0.978035
-0.391153
-0.689347
-0.594407
-0.634848
-0.594897
-0.564113
-0.508694
-0.444996
-0.369513
-0.286805
-0.198247
-0.106494
-0.0136368
0.0779484
0.166176
0.248392
0.323249
0.386177
0.440783
0.470602
0.509809
0.468248
0.563055
0.263357
0.851557
-0.751549
2.75435
-2.66561
0.563357
-0.927091
-0.385977
-0.666994
-0.580226
-0.618681
-0.581162
-0.551301
-0.497741
-0.435782
-0.362301
-0.281635
-0.1952
-0.105588
-0.0148815
0.0745769
0.160709
0.240925
0.313837
0.375097
0.427922
0.456911
0.493773
0.454306
0.540998
0.258601
0.800995
-0.691281
2.53945
-2.4574
0.504655
-0.879902
-0.382808
-0.647742
-0.568754
-0.605326
-0.569981
-0.540829
-0.488811
-0.428259
-0.356417
-0.277423
-0.192735
-0.104885
-0.0159508
0.0717595
0.156175
0.234764
0.306095
0.366021
0.417389
0.445764
0.480543
0.443069
0.52204
0.255854
0.754192
-0.632039
2.33167
-2.25633
0.446894
-0.836501
-0.38175
-0.631656
-0.560077
-0.594855
-0.561428
-0.532766
-0.481967
-0.422481
-0.351906
-0.274204
-0.190871
-0.104392
-0.016836
0.0695192
0.15261
0.229954
0.300079
0.359015
0.409249
0.437234
0.470187
0.43462
0.506245
0.255217
0.711181
-0.573733
2.13104