/*--------------------------------*- C++ -*----------------------------------*\
| =========                 |                                                 |
| \\      /  F ield         | OpenFOAM: The Open Source CFD Toolbox           |
|  \\    /   O peration     | Version:  5.x                                   |
|   \\  /    A nd           | Web:      www.OpenFOAM.org                      |
|    \\/     M anipulation  |                                                 |
\*---------------------------------------------------------------------------*/
FoamFile
{
    version     2.0;
    format      ascii;
    class       surfaceScalarField;
    location    "0.015";
    object      phi;
}
// * * * * * * * * * * * * * * * * * * * * * * * * * * * * * * * * * * * * * //

dimensions      [0 3 -1 0 0 0 0];

internalField   nonuniform List<scalar> 
14230
(
-4.59999e-13
-5.03778e-15
-4.50422e-13
-9.57502e-15
-4.26382e-13
-2.40388e-14
-4.11625e-13
-1.47557e-14
-3.52353e-13
-5.92699e-14
-3.76184e-13
2.38329e-14
-1.95632e-13
-1.80551e-13
-4.50073e-13
2.54442e-13
2.1954e-13
-6.69612e-13
-9.62311e-13
1.18185e-12
1.32473e-12
-2.28704e-12
-2.15e-12
3.47473e-12
2.01488e-12
-4.16487e-12
-7.73784e-13
2.78866e-12
-1.48949e-12
7.1571e-13
-1.35768e-12
-1.74396e-14
-1.32218e-12
-4.50802e-14
-1.26135e-12
-8.48654e-14
-1.18656e-12
-8.95463e-14
-1.07165e-12
-1.7417e-13
-9.97446e-13
-5.03732e-14
-7.65379e-13
-4.12616e-13
-8.75302e-13
3.64367e-13
-1.80833e-13
-1.36408e-12
-1.20584e-12
2.20686e-12
1.21466e-12
-4.70753e-12
-2.64706e-12
7.33644e-12
2.76338e-12
-9.57531e-12
-1.05858e-12
6.61062e-12
-3.97224e-12
1.42417e-12
-2.21251e-12
-3.66893e-14
-2.15174e-12
-1.05855e-13
-2.05599e-12
-1.80608e-13
-1.92121e-12
-2.24329e-13
-1.75851e-12
-3.36864e-13
-1.57255e-12
-2.36332e-13
-1.33602e-12
-6.49143e-13
-1.19311e-12
2.21452e-13
-7.36902e-13
-1.82028e-12
-1.04221e-12
2.51216e-12
3.61778e-13
-6.11152e-12
-1.91902e-12
9.61724e-12
2.45416e-12
-1.39485e-11
-9.35889e-13
1.00007e-11
-6.88365e-12
1.97552e-12
-3.02062e-12
-6.33312e-14
-2.93653e-12
-1.89942e-13
-2.80437e-12
-3.12767e-13
-2.61669e-12
-4.12007e-13
-2.39642e-12
-5.57136e-13
-2.12504e-12
-5.0771e-13
-1.83823e-12
-9.35954e-13
-1.5388e-12
-7.79778e-14
-1.14967e-12
-2.20941e-12
-1.04348e-12
2.40597e-12
-2.14127e-13
-6.94087e-12
-1.26999e-12
1.06731e-11
2.14277e-12
-1.73613e-11
-7.58168e-13
1.29016e-11
-1.02949e-11
2.6531e-12
-3.77878e-12
-9.74579e-14
-3.67263e-12
-2.96089e-13
-3.50427e-12
-4.81121e-13
-3.2674e-12
-6.48882e-13
-2.98733e-12
-8.37195e-13
-2.64195e-12
-8.53096e-13
-2.28868e-12
-1.28922e-12
-1.87422e-12
-4.92446e-13
-1.47891e-12
-2.60472e-12
-1.11296e-12
2.04003e-12
-5.77747e-13
-7.47608e-12
-7.00268e-13
1.07956e-11
1.81462e-12
-1.98761e-11
-4.70733e-13
1.5187e-11
-1.4221e-11
3.45534e-12
-4.48334e-12
-1.38941e-13
-4.35616e-12
-4.23264e-13
-4.15261e-12
-6.84674e-13
-3.86912e-12
-9.3237e-13
-3.52998e-12
-1.17633e-12
-3.11678e-12
-1.26629e-12
-2.69196e-12
-1.71403e-12
-2.18337e-12
-1.00103e-12
-1.74688e-12
-3.04121e-12
-1.19738e-12
1.49052e-12
-7.76435e-13
-7.89703e-12
-2.25281e-13
1.02445e-11
1.50215e-12
-2.16036e-11
-5.59144e-14
1.6745e-11
-1.86682e-11
4.39128e-12
-5.13032e-12
-1.87526e-13
-4.98308e-12
-5.705e-13
-4.74574e-12
-9.22012e-13
-4.41786e-12
-1.26026e-12
-4.0217e-12
-1.57248e-12
-3.54481e-12
-1.74318e-12
-3.04818e-12
-2.21067e-12
-2.45713e-12
-1.59208e-12
-1.96089e-12
-3.53746e-12
-1.26643e-12
7.96066e-13
-8.51758e-13
-8.3117e-12
1.49982e-13
9.24273e-12
1.24418e-12
-2.26978e-11
5.00602e-13
1.74886e-11
-2.36358e-11
5.46821e-12
-5.71541e-12
-2.42882e-13
-5.5491e-12
-7.36812e-13
-5.27964e-12
-1.19146e-12
-4.90952e-12
-1.63038e-12
-4.45907e-12
-2.02293e-12
-3.92186e-12
-2.2804e-12
-3.35537e-12
-2.77715e-12
-2.68882e-12
-2.25862e-12
-2.12238e-12
-4.1039e-12
-1.30373e-12
-2.2593e-14
-8.4125e-13
-8.77417e-12
4.37474e-13
7.964e-12
1.0772e-12
-2.33375e-11
1.21305e-12
1.73528e-11
-2.91135e-11
6.69074e-12
-6.23395e-12
-3.0463e-13
-6.04961e-12
-9.21156e-13
-5.74988e-12
-1.49119e-12
-5.33979e-12
-2.04047e-12
-4.83813e-12
-2.52459e-12
-4.24377e-12
-2.87476e-12
-3.61038e-12
-3.41054e-12
-2.87296e-12
-2.99604e-12
-2.23076e-12
-4.7461e-12
-1.30258e-12
-9.50774e-13
-7.73756e-13
-9.303e-12
6.61992e-13
6.52826e-12
1.03561e-12
-2.37111e-11
2.09331e-12
1.62951e-11
-3.50816e-11
8.06148e-12
-6.68097e-12
-3.72359e-13
-6.4797e-12
-1.12242e-12
-6.15168e-12
-1.81921e-12
-5.70404e-12
-2.48811e-12
-5.15445e-12
-3.07417e-12
-4.50621e-12
-3.523e-12
-3.80932e-12
-4.10742e-12
-3.00479e-12
-3.80057e-12
-2.28503e-12
-5.46587e-12
-1.26166e-12
-1.97414e-12
-6.66709e-13
-9.89795e-12
8.5711e-13
5.00444e-12
1.15104e-12
-2.4005e-11
3.15041e-12
1.42957e-11
-4.15125e-11
9.58123e-12
-7.05112e-12
-4.45631e-13
-6.83412e-12
-1.33942e-12
-6.47988e-12
-2.17345e-12
-5.99729e-12
-2.9707e-12
-5.40322e-12
-3.66824e-12
-4.70452e-12
-4.22171e-12
-3.94786e-12
-4.86408e-12
-3.07997e-12
-4.66846e-12
-2.28425e-12
-6.26159e-12
-1.18095e-12
-3.07744e-12
-5.25669e-13
-1.05532e-11
1.06194e-12
3.41683e-12
1.45132e-12
-2.43944e-11
4.39041e-12
1.13566e-11
-4.83711e-11
1.1249e-11
-7.3387e-12
-5.2399e-13
-7.10723e-12
-1.57089e-12
-6.72895e-12
-2.55173e-12
-6.21414e-12
-3.48551e-12
-5.57917e-12
-4.30321e-12
-4.83364e-12
-4.96724e-12
-4.02126e-12
-5.67646e-12
-3.0943e-12
-5.59542e-12
-2.22704e-12
-7.12884e-12
-1.05861e-12
-4.24587e-12
-3.4515e-13
-1.12667e-11
1.31819e-12
1.75349e-12
1.95981e-12
-2.5036e-11
5.81655e-12
7.49985e-12
-5.56169e-11
1.30623e-11
-7.53763e-12
-6.06968e-13
-7.293e-12
-1.81552e-12
-6.89293e-12
-2.9518e-12
-6.34878e-12
-4.02967e-12
-5.67657e-12
-4.97541e-12
-4.88807e-12
-5.75574e-12
-4.02435e-12
-6.54018e-12
-3.04325e-12
-6.57652e-12
-2.11061e-12
-8.06148e-12
-8.88943e-13
-5.46754e-12
-1.10243e-13
-1.20454e-11
1.66773e-12
-2.44841e-14
2.69485e-12
-2.60632e-11
7.42933e-12
2.76536e-12
-6.32047e-11
1.50172e-11
-7.64146e-12
-6.94087e-13
-7.38503e-12
-2.07195e-12
-6.96545e-12
-3.37137e-12
-6.39492e-12
-4.6002e-12
-5.68922e-12
-5.68111e-12
-4.86176e-12
-6.5832e-12
-3.95136e-12
-7.45058e-12
-2.92148e-12
-7.6064e-12
-1.92983e-12
-9.05313e-12
-6.6135e-13
-6.73602e-12
2.01263e-13
-1.2908e-11
2.1503e-12
-1.97352e-12
3.66964e-12
-2.75825e-11
9.22673e-12
-2.79173e-12
-7.10864e-11
1.71084e-11
-7.64334e-12
-7.84869e-13
-7.37647e-12
-2.33882e-12
-6.9397e-12
-3.80814e-12
-6.34579e-12
-5.19412e-12
-5.61034e-12
-6.41655e-12
-4.74801e-12
-7.44553e-12
-3.79569e-12
-8.4029e-12
-2.72224e-12
-8.67985e-12
-1.67648e-12
-1.00989e-11
-3.60169e-13
-8.05232e-12
6.16527e-13
-1.38847e-11
2.80184e-12
-4.15883e-12
4.89225e-12
-2.96729e-11
1.12045e-11
-9.10396e-12
-7.92118e-11
1.93299e-11
-7.53603e-12
-8.78843e-13
-7.2601e-12
-2.61475e-12
-6.8084e-12
-4.25984e-12
-6.19408e-12
-5.80844e-12
-5.43256e-12
-7.17807e-12
-4.53938e-12
-8.33871e-12
-3.54963e-12
-9.39265e-12
-2.4369e-12
-9.79258e-12
-1.33884e-12
-1.1197e-11
3.46889e-14
-9.42585e-12
1.16537e-12
-1.50154e-11
3.65322e-12
-6.64668e-12
6.36587e-12
-3.23856e-11
1.33565e-11
-1.60946e-11
-8.75302e-11
2.16749e-11
-7.3119e-12
-9.75555e-13
-7.02824e-12
-2.89841e-12
-6.56381e-12
-4.72427e-12
-5.93193e-12
-6.44032e-12
-5.1478e-12
-7.9622e-12
-4.22747e-12
-9.25904e-12
-3.20414e-12
-1.0416e-11
-2.0546e-12
-1.09421e-11
-9.01726e-13
-1.23498e-11
5.46888e-13
-1.08745e-11
1.87782e-12
-1.63463e-11
4.72941e-12
-9.49827e-12
8.08919e-12
-3.57453e-11
1.56751e-11
-2.36804e-11
-9.59915e-11
2.41364e-11
-6.96296e-12
-1.07458e-12
-6.67281e-12
-3.18855e-12
-6.1977e-12
-5.19938e-12
-5.5509e-12
-7.08712e-12
-4.74727e-12
-8.76584e-12
-3.80291e-12
-1.02034e-11
-2.7486e-12
-1.14703e-11
-1.56214e-12
-1.21286e-11
-3.46869e-13
-1.35651e-11
1.20228e-12
-1.24236e-11
2.78251e-12
-1.79266e-11
6.04907e-12
-1.27648e-11
1.00569e-11
-3.97532e-11
1.81515e-11
-3.1775e-11
-1.04547e-10
2.67068e-11
-6.48082e-12
-1.17553e-12
-6.18534e-12
-3.48403e-12
-5.70137e-12
-5.68335e-12
-5.04197e-12
-7.74653e-12
-4.22138e-12
-9.58642e-12
-3.2552e-12
-1.11696e-11
-2.17085e-12
-1.25546e-11
-9.44108e-13
-1.33553e-11
3.465e-13
-1.48557e-11
2.02739e-12
-1.41045e-11
3.90499e-12
-1.98042e-11
7.62452e-12
-1.64844e-11
1.22606e-11
-4.43893e-11
2.07763e-11
-4.02906e-11
-1.13149e-10
2.93788e-11
-5.85681e-12
-1.27807e-12
-5.55697e-12
-3.78387e-12
-5.06568e-12
-6.17464e-12
-4.3955e-12
-8.41671e-12
-3.55977e-12
-1.04221e-11
-2.57275e-12
-1.21566e-11
-1.45716e-12
-1.36702e-11
-1.83175e-13
-1.46293e-11
1.20056e-12
-1.62394e-11
3.04795e-12
-1.59519e-11
5.26658e-12
-2.20228e-11
9.46197e-12
-2.06798e-11
1.4689e-11
-4.96163e-11
2.35396e-11
-4.91412e-11
-1.21755e-10
3.21453e-11
-5.08191e-12
-1.38194e-12
-4.77849e-12
-4.08729e-12
-4.28103e-12
-6.6721e-12
-3.60132e-12
-9.09642e-12
-2.75132e-12
-1.12721e-11
-1.74296e-12
-1.3165e-11
-5.92478e-13
-1.48207e-11
7.39246e-13
-1.5961e-11
2.23788e-12
-1.77381e-11
4.28767e-12
-1.80017e-11
6.88359e-12
-2.46187e-11
1.15621e-11
-2.53583e-11
1.73291e-11
-5.53834e-11
2.64315e-11
-5.82436e-11
-1.30323e-10
3.49994e-11
-4.14687e-12
-1.48696e-12
-3.84039e-12
-4.39377e-12
-3.33748e-12
-7.17501e-12
-2.64877e-12
-9.78513e-12
-1.78425e-12
-1.21367e-11
-7.52312e-13
-1.41969e-11
4.39244e-13
-1.60123e-11
1.84256e-12
-1.73643e-11
3.4805e-12
-1.9376e-11
5.76713e-12
-2.02883e-11
8.76707e-12
-2.76187e-11
1.39207e-11
-3.05119e-11
2.01667e-11
-6.16293e-11
2.94424e-11
-6.75193e-11
-1.38815e-10
3.79347e-11
-3.04224e-12
-1.59303e-12
-2.73294e-12
-4.70308e-12
-2.22475e-12
-7.6832e-12
-1.52674e-12
-1.04831e-11
-6.46212e-13
-1.30172e-11
4.13318e-13
-1.52564e-11
1.65462e-12
-1.72536e-11
3.14603e-12
-1.88558e-11
4.94885e-12
-2.11788e-11
7.50301e-12
-2.28425e-11
1.09227e-11
-3.10384e-11
1.65296e-11
-3.61188e-11
2.31869e-11
-6.82865e-11
3.2563e-11
-7.68954e-11
-1.47198e-10
4.09453e-11
-1.75843e-12
-1.70017e-12
-1.44622e-12
-5.01529e-12
-9.32357e-13
-8.19706e-12
-2.23872e-13
-1.11916e-11
6.75461e-13
-1.39165e-11
1.76841e-12
-1.63494e-11
3.07031e-12
-1.85555e-11
4.66814e-12
-2.04536e-11
6.66089e-12
-2.31716e-11
9.50762e-12
-2.56892e-11
1.33512e-11
-3.4882e-11
1.93776e-11
-4.21452e-11
2.63748e-11
-7.52837e-11
3.57849e-11
-8.63055e-11
-1.55439e-10
4.40258e-11
-2.85814e-13
-1.80851e-12
2.97382e-14
-5.33084e-12
5.50283e-13
-8.71761e-12
1.27136e-12
-1.19127e-11
2.19359e-12
-1.48388e-11
3.32744e-12
-1.74832e-11
4.70252e-12
-1.99305e-11
6.42585e-12
-2.21769e-11
8.63146e-12
-2.53772e-11
1.17886e-11
-2.88464e-11
1.60488e-11
-3.91422e-11
2.24509e-11
-4.85472e-11
2.9716e-11
-8.25488e-11
3.91e-11
-9.56896e-11
-1.6351e-10
4.71716e-11
1.38521e-12
-1.91829e-12
1.70489e-12
-5.65052e-12
2.23374e-12
-9.24646e-12
2.97043e-12
-1.26494e-11
3.92085e-12
-1.57892e-11
5.10447e-12
-1.86668e-11
6.5664e-12
-2.13925e-11
8.434e-12
-2.40445e-11
1.08718e-11
-2.78151e-11
1.43492e-11
-3.23238e-11
1.90079e-11
-4.38009e-11
2.57347e-11
-5.5274e-11
3.31968e-11
-9.0011e-11
4.25014e-11
-1.04994e-10
-1.71387e-10
5.03781e-11
3.26409e-12
-2.02985e-12
3.58903e-12
-5.97546e-12
4.12841e-12
-9.78584e-12
4.88457e-12
-1.34055e-11
5.86954e-12
-1.67741e-11
7.11279e-12
-1.99101e-11
8.67563e-12
-2.29553e-11
1.07048e-11
-2.60737e-11
1.33895e-11
-3.04998e-11
1.71883e-11
-3.61225e-11
2.22178e-11
-4.88304e-11
2.92134e-11
-6.22696e-11
3.68047e-11
-9.76023e-11
4.59827e-11
-1.14172e-10
-1.79046e-10
5.36418e-11
5.36005e-12
-2.14366e-12
5.69171e-12
-6.30711e-12
6.24439e-12
-1.03385e-11
7.02461e-12
-1.41858e-11
8.05124e-12
-1.78008e-11
9.36455e-12
-2.12234e-11
1.1042e-11
-2.46327e-11
1.32475e-11
-2.82793e-11
1.61881e-11
-3.34404e-11
2.0301e-11
-4.02354e-11
2.56655e-11
-5.41949e-11
3.28713e-11
-6.94754e-11
4.05282e-11
-1.05259e-10
4.95384e-11
-1.23182e-10
-1.86467e-10
5.69592e-11
7.68193e-12
-2.26027e-12
8.02206e-12
-6.64724e-12
8.59125e-12
-1.09077e-11
9.40068e-12
-1.49952e-11
1.04766e-11
-1.88767e-11
1.18704e-11
-2.26172e-11
1.36749e-11
-2.64372e-11
1.60684e-11
-3.06728e-11
1.92677e-11
-3.66397e-11
2.36794e-11
-4.46471e-11
2.93368e-11
-5.98523e-11
3.66933e-11
-7.68318e-11
4.43571e-11
-1.12923e-10
5.31636e-11
-1.31989e-10
-1.9363e-10
6.03273e-11
1.02381e-11
-2.38032e-12
1.05887e-11
-6.9978e-12
1.1178e-11
-1.1497e-11
1.20221e-11
-1.58393e-11
1.31551e-11
-2.00097e-11
1.46393e-11
-2.41014e-11
1.65815e-11
-2.83794e-11
1.91703e-11
-3.32616e-11
2.26249e-11
-4.00943e-11
2.73128e-11
-4.9335e-11
3.32165e-11
-6.57559e-11
4.06652e-11
-8.42805e-11
4.82825e-11
-1.2054e-10
5.6854e-11
-1.4056e-10
-2.0052e-10
6.37435e-11
1.30365e-11
-2.50447e-12
1.33996e-11
-7.36094e-12
1.40127e-11
-1.21101e-11
1.48971e-11
-1.67238e-11
1.60947e-11
-2.12072e-11
1.76782e-11
-2.56849e-11
1.97662e-11
-3.04674e-11
2.25534e-11
-3.60488e-11
2.62535e-11
-4.37944e-11
3.11889e-11
-5.42704e-11
3.72891e-11
-7.18561e-11
4.47737e-11
-9.17652e-11
5.22967e-11
-1.28063e-10
6.06059e-11
-1.48869e-10
-2.07119e-10
6.72053e-11
1.60841e-11
-2.63346e-12
1.6462e-11
-7.73885e-12
1.71027e-11
-1.27508e-11
1.80329e-11
-1.7654e-11
1.93019e-11
-2.24762e-11
2.0992e-11
-2.7375e-11
2.3231e-11
-3.27064e-11
2.62147e-11
-3.90325e-11
3.01449e-11
-4.77246e-11
3.5294e-11
-5.94196e-11
4.15397e-11
-7.81017e-11
4.9007e-11
-9.92325e-11
5.63929e-11
-1.35449e-10
6.4416e-11
-1.56893e-10
-2.13414e-10
7.07105e-11
1.93872e-11
-2.76797e-12
1.97821e-11
-8.1337e-12
2.04541e-11
-1.34229e-11
2.14351e-11
-1.8635e-11
2.27815e-11
-2.38226e-11
2.45836e-11
-2.91771e-11
2.69753e-11
-3.50982e-11
3.01491e-11
-4.22063e-11
3.42885e-11
-5.1864e-11
3.96138e-11
-6.47449e-11
4.59539e-11
-8.44417e-11
5.33545e-11
-1.06633e-10
6.05655e-11
-1.4266e-10
6.82812e-11
-1.64608e-10
-2.1939e-10
7.42569e-11
2.29515e-11
-2.90869e-12
2.33654e-11
-8.54756e-12
2.4072e-11
-1.41295e-11
2.51082e-11
-1.96712e-11
2.65365e-11
-2.52509e-11
2.84535e-11
-3.10941e-11
3.09963e-11
-3.7641e-11
3.4349e-11
-4.5559e-11
3.86723e-11
-5.61873e-11
4.41338e-11
-7.02064e-11
5.05183e-11
-9.08262e-11
5.78068e-11
-1.13922e-10
6.48093e-11
-1.49663e-10
7.21988e-11
-1.71998e-10
-2.25033e-10
7.78426e-11
2.67813e-11
-3.05621e-12
2.7216e-11
-8.98225e-12
2.79602e-11
-1.48738e-11
2.9055e-11
-2.0766e-11
3.05682e-11
-2.6764e-11
3.26006e-11
-3.31266e-11
3.52891e-11
-4.03294e-11
3.88054e-11
-4.90754e-11
4.32837e-11
-6.06655e-11
4.88398e-11
-7.57625e-11
5.52205e-11
-9.72069e-11
6.23556e-11
-1.21057e-10
6.91201e-11
-1.56427e-10
7.61662e-11
-1.79044e-10
-2.30333e-10
8.14655e-11
3.08803e-11
-3.21104e-12
3.13373e-11
-9.43927e-12
3.21213e-11
-1.56578e-11
3.3277e-11
-2.19217e-11
3.48762e-11
-2.83632e-11
3.70218e-11
-3.52722e-11
3.9847e-11
-4.31546e-11
4.35079e-11
-5.27363e-11
4.81094e-11
-6.52671e-11
5.3718e-11
-8.13711e-11
6.00493e-11
-1.03538e-10
6.69939e-11
-1.28001e-10
7.34938e-11
-1.62927e-10
8.01809e-11
-1.85731e-10
-2.35275e-10
8.51237e-11
3.52507e-11
-3.37354e-12
3.57312e-11
-9.91972e-12
3.65564e-11
-1.6483e-11
3.7774e-11
-2.31393e-11
3.94583e-11
-3.00475e-11
4.17121e-11
-3.7526e-11
4.46618e-11
-4.61043e-11
4.84449e-11
-5.65193e-11
5.31359e-11
-6.99581e-11
5.87555e-11
-8.69907e-11
6.49946e-11
-1.09777e-10
7.17152e-11
-1.34722e-10
7.7927e-11
-1.69139e-10
8.42405e-11
-1.92045e-10
-2.3985e-10
8.88153e-11
3.98941e-11
-3.54392e-12
4.03986e-11
-1.04242e-11
4.12655e-11
-1.73499e-11
4.25446e-11
-2.44184e-11
4.43111e-11
-3.1814e-11
4.66653e-11
-3.98802e-11
4.97243e-11
-4.91634e-11
5.36046e-11
-6.03996e-11
5.83502e-11
-7.47036e-11
6.39401e-11
-9.25806e-11
7.00474e-11
-1.15885e-10
7.6514e-11
-1.41189e-10
8.24163e-11
-1.75041e-10
8.83426e-11
-1.97971e-10
-2.44046e-10
9.25383e-11
4.48107e-11
-3.72222e-12
4.53392e-11
-1.09528e-11
4.62474e-11
-1.82581e-11
4.7586e-11
-2.5757e-11
4.94296e-11
-3.36576e-11
5.18739e-11
-4.23245e-11
5.50243e-11
-5.23137e-11
5.89748e-11
-6.43502e-11
6.37395e-11
-7.94683e-11
6.92607e-11
-9.81018e-11
7.51996e-11
-1.21824e-10
8.13852e-11
-1.47374e-10
8.69586e-11
-1.80615e-10
9.24848e-11
-2.03497e-10
-2.47852e-10
9.6291e-11
4.99996e-11
-3.90826e-12
5.05517e-11
-1.15048e-11
5.14996e-11
-1.9206e-11
5.28941e-11
-2.71515e-11
5.48077e-11
-3.55711e-11
5.73294e-11
-4.48461e-11
6.05509e-11
-5.55353e-11
6.45431e-11
-6.83424e-11
6.92917e-11
-8.42169e-11
7.47069e-11
-1.03517e-10
8.04438e-11
-1.2756e-10
8.63242e-11
-1.53255e-10
9.15508e-11
-1.85841e-10
9.66647e-11
-2.08611e-10
-2.51259e-10
1.00071e-10
5.5459e-11
-4.10165e-12
5.60334e-11
-1.20792e-11
5.70184e-11
-2.01911e-11
5.84637e-11
-2.85968e-11
6.04381e-11
-3.75455e-11
6.30224e-11
-4.74304e-11
6.6293e-11
-5.88059e-11
7.02975e-11
-7.23469e-11
7.49952e-11
-8.89145e-11
8.02693e-11
-1.08791e-10
8.57735e-11
-1.33065e-10
9.13267e-11
-1.58808e-10
9.619e-11
-1.90705e-10
1.0088e-10
-2.13301e-10
-2.54256e-10
1.03878e-10
6.11859e-11
-4.3018e-12
6.17807e-11
-1.2674e-11
6.27992e-11
-2.12095e-11
6.42887e-11
-3.00864e-11
6.6313e-11
-3.95698e-11
6.8943e-11
-5.00604e-11
7.22392e-11
-6.21021e-11
7.62262e-11
-7.63339e-11
8.08392e-11
-9.35275e-11
8.59393e-11
-1.13891e-10
9.11826e-11
-1.38308e-10
9.63887e-11
-1.64014e-10
1.00873e-10
-1.95189e-10
1.05129e-10
-2.17556e-10
-2.56836e-10
1.07708e-10
6.71765e-11
-4.50787e-12
6.77892e-11
-1.32867e-11
6.88362e-11
-2.22565e-11
7.03618e-11
-3.1612e-11
7.24234e-11
-4.16314e-11
7.5081e-11
-5.2718e-11
7.83783e-11
-6.53994e-11
8.23179e-11
-8.02735e-11
8.68136e-11
-9.80233e-11
9.1709e-11
-1.18787e-10
9.66657e-11
-1.43264e-10
1.01506e-10
-1.68855e-10
1.05598e-10
-1.99281e-10
1.09408e-10
-2.21367e-10
-2.58988e-10
1.11561e-10
7.3426e-11
-4.71882e-12
7.40534e-11
-1.39142e-11
7.51231e-11
-2.33262e-11
7.66754e-11
-3.31642e-11
7.87603e-11
-4.37163e-11
8.14258e-11
-5.53836e-11
8.4699e-11
-6.86725e-11
8.85617e-11
-8.41362e-11
9.29091e-11
-1.02371e-10
9.7571e-11
-1.23449e-10
1.02218e-10
-1.47911e-10
1.06676e-10
-1.73313e-10
1.10361e-10
-2.02965e-10
1.13716e-10
-2.24722e-10
-2.60706e-10
1.15434e-10
7.99286e-11
-4.93341e-12
8.05671e-11
-1.45526e-11
8.16527e-11
-2.44118e-11
8.3221e-11
-3.47325e-11
8.53139e-11
-4.58091e-11
8.79669e-11
-5.80366e-11
9.11904e-11
-7.1896e-11
9.49472e-11
-8.7893e-11
9.91167e-11
-1.0654e-10
1.03519e-10
-1.27851e-10
1.07833e-10
-1.52226e-10
1.11894e-10
-1.77374e-10
1.15159e-10
-2.0623e-10
1.18051e-10
-2.27614e-10
-2.61982e-10
1.19326e-10
8.66781e-11
-5.15019e-12
8.73232e-11
-1.51978e-11
8.84171e-11
-2.55057e-11
8.99898e-11
-3.63052e-11
9.20743e-11
-4.78936e-11
9.46936e-11
-6.0656e-11
9.7842e-11
-7.50444e-11
1.01465e-10
-9.15159e-11
1.05428e-10
-1.10504e-10
1.09546e-10
-1.31968e-10
1.13509e-10
-1.56188e-10
1.17157e-10
-1.81022e-10
1.1999e-10
-2.09064e-10
1.2241e-10
-2.30033e-10
-2.62809e-10
1.23236e-10
9.36672e-11
-5.36754e-12
9.43142e-11
-1.58447e-11
9.54079e-11
-2.65994e-11
9.69724e-11
-3.78698e-11
9.90316e-11
-4.99528e-11
1.01596e-10
-6.322e-11
1.04644e-10
-7.80924e-11
1.08105e-10
-9.49776e-11
1.11837e-10
-1.14235e-10
1.15646e-10
-1.35778e-10
1.19239e-10
-1.59781e-10
1.22462e-10
-1.84245e-10
1.24852e-10
-2.11454e-10
1.26791e-10
-2.31972e-10
-2.63179e-10
1.27162e-10
1.00888e-10
-5.5837e-12
1.01532e-10
-1.64882e-11
1.02616e-10
-2.76839e-11
1.0416e-10
-3.94129e-11
1.06176e-10
-5.19689e-11
1.08663e-10
-6.5707e-11
1.11585e-10
-8.1015e-11
1.1486e-10
-9.82521e-11
1.18334e-10
-1.17709e-10
1.21815e-10
-1.39258e-10
1.2502e-10
-1.62986e-10
1.27805e-10
-1.8703e-10
1.29742e-10
-2.13391e-10
1.31193e-10
-2.33423e-10
-2.63089e-10
1.31102e-10
1.08333e-10
-5.79674e-12
1.08968e-10
-1.71227e-11
1.10033e-10
-2.87494e-11
1.11541e-10
-4.09209e-11
1.13497e-10
-5.39241e-11
1.15885e-10
-6.80952e-11
1.18658e-10
-8.37881e-11
1.2172e-10
-1.01315e-10
1.24914e-10
-1.20903e-10
1.28046e-10
-1.42391e-10
1.30848e-10
-1.65789e-10
1.33183e-10
-1.89364e-10
1.34656e-10
-2.14864e-10
1.35613e-10
-2.3438e-10
-2.6253e-10
1.35055e-10
1.15994e-10
-6.00465e-12
1.16613e-10
-1.7742e-11
1.1765e-10
-2.9786e-11
1.19108e-10
-4.23794e-11
1.20984e-10
-5.58e-11
1.23252e-10
-7.03632e-11
1.25852e-10
-8.63881e-11
1.28679e-10
-1.04142e-10
1.3157e-10
-1.23794e-10
1.34336e-10
-1.45156e-10
1.3672e-10
-1.68173e-10
1.38594e-10
-1.91238e-10
1.39594e-10
-2.15865e-10
1.40051e-10
-2.34837e-10
-2.615e-10
1.39021e-10
1.23861e-10
-6.20534e-12
1.24459e-10
-1.834e-11
1.25456e-10
-3.07834e-11
1.26851e-10
-4.37741e-11
1.28629e-10
-5.75786e-11
1.30756e-10
-7.24898e-11
1.3316e-10
-8.87924e-11
1.35729e-10
-1.0671e-10
1.38297e-10
-1.26363e-10
1.40679e-10
-1.47537e-10
1.42631e-10
-1.70126e-10
1.44034e-10
-1.92641e-10
1.44553e-10
-2.16384e-10
1.44504e-10
-2.34787e-10
-2.59993e-10
1.42997e-10
1.31925e-10
-6.39663e-12
1.32495e-10
-1.89104e-11
1.33443e-10
-3.17309e-11
1.34759e-10
-4.50904e-11
1.36422e-10
-5.92418e-11
1.38387e-10
-7.44544e-11
1.40574e-10
-9.0979e-11
1.42863e-10
-1.08999e-10
1.45089e-10
-1.28589e-10
1.47071e-10
-1.49518e-10
1.48579e-10
-1.71634e-10
1.49502e-10
-1.93564e-10
1.49531e-10
-2.16414e-10
1.48971e-10
-2.34226e-10
-2.58005e-10
1.46982e-10
1.40177e-10
-6.57633e-12
1.40714e-10
-1.94466e-11
1.41601e-10
-3.26179e-11
1.42824e-10
-4.63138e-11
1.44354e-10
-6.07718e-11
1.46137e-10
-7.6237e-11
1.48085e-10
-9.29272e-11
1.50074e-10
-1.10989e-10
1.51941e-10
-1.30456e-10
1.53508e-10
-1.51085e-10
1.5456e-10
-1.72687e-10
1.54993e-10
-1.93997e-10
1.54526e-10
-2.15947e-10
1.5345e-10
-2.3315e-10
-2.55531e-10
1.50976e-10
1.48609e-10
-6.7422e-12
1.49104e-10
-1.99422e-11
1.4992e-10
-3.34337e-11
1.51036e-10
-4.74299e-11
1.52416e-10
-6.21512e-11
1.53997e-10
-7.78182e-11
1.55687e-10
-9.4617e-11
1.57358e-10
-1.1266e-10
1.58848e-10
-1.31946e-10
1.59986e-10
-1.52223e-10
1.60571e-10
-1.73272e-10
1.60507e-10
-1.93932e-10
1.59537e-10
-2.14977e-10
1.5794e-10
-2.31553e-10
-2.52569e-10
1.54978e-10
1.5721e-10
-6.89204e-12
1.57658e-10
-2.03905e-11
1.58392e-10
-3.41679e-11
1.59387e-10
-4.84245e-11
1.60599e-10
-6.33631e-11
1.6196e-10
-7.91794e-11
1.63372e-10
-9.60295e-11
1.64707e-10
-1.13995e-10
1.65805e-10
-1.33044e-10
1.66501e-10
-1.52919e-10
1.66609e-10
-1.7338e-10
1.6604e-10
-1.93363e-10
1.6456e-10
-2.13497e-10
1.6244e-10
-2.29432e-10
-2.49115e-10
1.58986e-10
1.65971e-10
-7.02364e-12
1.66366e-10
-2.07851e-11
1.67008e-10
-3.48098e-11
1.67867e-10
-4.92839e-11
1.68895e-10
-6.43911e-11
1.70018e-10
-8.03028e-11
1.71136e-10
-9.71467e-11
1.72117e-10
-1.14976e-10
1.72808e-10
-1.33735e-10
1.73051e-10
-1.53162e-10
1.72672e-10
-1.73001e-10
1.71591e-10
-1.92281e-10
1.69596e-10
-2.11502e-10
1.66948e-10
-2.26785e-10
-2.45167e-10
1.63e-10
1.74884e-10
-7.13484e-12
1.75219e-10
-2.11197e-11
1.75758e-10
-3.53494e-11
1.76469e-10
-4.99945e-11
1.77297e-10
-6.52193e-11
1.78166e-10
-8.11712e-11
1.7897e-10
-9.79516e-11
1.79583e-10
-1.15589e-10
1.79853e-10
-1.34005e-10
1.79631e-10
-1.52941e-10
1.78757e-10
-1.72127e-10
1.77157e-10
-1.90682e-10
1.74642e-10
-2.08987e-10
1.71464e-10
-2.23607e-10
-2.40721e-10
1.67018e-10
1.8394e-10
-7.22353e-12
1.84208e-10
-2.1388e-11
1.84636e-10
-3.57766e-11
1.85184e-10
-5.05433e-11
1.85798e-10
-6.58325e-11
1.86395e-10
-8.17685e-11
1.86871e-10
-9.8428e-11
1.871e-10
-1.15818e-10
1.86936e-10
-1.33841e-10
1.8624e-10
-1.52244e-10
1.84861e-10
-1.70749e-10
1.82737e-10
-1.88557e-10
1.79697e-10
-2.05947e-10
1.75986e-10
-2.19896e-10
-2.35776e-10
1.71041e-10
1.93131e-10
-7.28765e-12
1.93327e-10
-2.15839e-11
1.93632e-10
-3.60817e-11
1.94006e-10
-5.09176e-11
1.94389e-10
-6.6216e-11
1.947e-10
-8.20789e-11
1.94833e-10
-9.85607e-11
1.94663e-10
-1.15648e-10
1.94054e-10
-1.33232e-10
1.92873e-10
-1.51063e-10
1.90983e-10
-1.68859e-10
1.88329e-10
-1.85903e-10
1.84759e-10
-2.02377e-10
1.80513e-10
-2.1565e-10
-2.30328e-10
1.75066e-10
2.02448e-10
-7.32521e-12
2.02565e-10
-2.17016e-11
2.02739e-10
-3.62554e-11
2.02927e-10
-5.11052e-11
2.03066e-10
-6.63558e-11
2.03075e-10
-8.20879e-11
2.0285e-10
-9.83351e-11
2.02269e-10
-1.15068e-10
2.01203e-10
-1.32166e-10
1.99528e-10
-1.49388e-10
1.9712e-10
-1.6645e-10
1.93931e-10
-1.82714e-10
1.89828e-10
-1.98275e-10
1.85044e-10
-2.10865e-10
-2.24378e-10
1.79093e-10
2.11883e-10
-7.33431e-12
2.11917e-10
-2.17353e-11
2.1195e-10
-3.62886e-11
2.1194e-10
-5.10946e-11
2.11822e-10
-6.62385e-11
2.11516e-10
-8.17812e-11
2.10918e-10
-9.77375e-11
2.09914e-10
-1.14064e-10
2.0838e-10
-1.30632e-10
2.06203e-10
-1.4721e-10
2.03269e-10
-1.63517e-10
1.99541e-10
-1.78986e-10
1.94901e-10
-1.93635e-10
1.89577e-10
-2.05541e-10
-2.17922e-10
1.83121e-10
2.21431e-10
-7.31309e-12
2.21375e-10
-2.16795e-11
2.21259e-10
-3.61726e-11
2.21039e-10
-5.08744e-11
2.20652e-10
-6.58513e-11
2.20016e-10
-8.11454e-11
2.19033e-10
-9.67549e-11
2.17594e-10
-1.12625e-10
2.15583e-10
-1.28621e-10
2.12894e-10
-1.44522e-10
2.0943e-10
-1.60052e-10
2.05157e-10
-1.74713e-10
1.99978e-10
-1.88456e-10
1.94112e-10
-1.99675e-10
-2.10959e-10
1.8715e-10
2.31083e-10
-7.25981e-12
2.30933e-10
-2.15291e-11
2.30659e-10
-3.58991e-11
2.30219e-10
-5.04339e-11
2.29549e-10
-6.51819e-11
2.28572e-10
-8.01677e-11
2.27192e-10
-9.53749e-11
2.25306e-10
-1.10739e-10
2.22807e-10
-1.26122e-10
2.19601e-10
-1.41315e-10
2.15599e-10
-1.5605e-10
2.10778e-10
-1.69892e-10
2.05056e-10
-1.82734e-10
1.98647e-10
-1.93266e-10
-2.0349e-10
1.91177e-10
2.40835e-10
-7.17276e-12
2.40585e-10
-2.12787e-11
2.40146e-10
-3.54599e-11
2.39474e-10
-4.97627e-11
2.38511e-10
-6.42184e-11
2.37179e-10
-7.88358e-11
2.3539e-10
-9.35855e-11
2.33046e-10
-1.08395e-10
2.30051e-10
-1.23127e-10
2.26319e-10
-1.37583e-10
2.21774e-10
-1.51506e-10
2.16402e-10
-1.64519e-10
2.10134e-10
-1.76466e-10
2.0318e-10
-1.86313e-10
-1.95512e-10
1.95203e-10
2.50681e-10
-7.05034e-12
2.50326e-10
-2.09237e-11
2.49713e-10
-3.48473e-11
2.48801e-10
-4.88509e-11
2.47532e-10
-6.29496e-11
2.45834e-10
-7.71378e-11
2.43624e-10
-9.13752e-11
2.40813e-10
-1.05584e-10
2.37312e-10
-1.19626e-10
2.33047e-10
-1.33319e-10
2.27954e-10
-1.46413e-10
2.22026e-10
-1.58591e-10
2.15211e-10
-1.69651e-10
2.07711e-10
-1.78813e-10
-1.87026e-10
1.99225e-10
2.60615e-10
-6.891e-12
2.60151e-10
-2.04591e-11
2.59357e-10
-3.40537e-11
2.58195e-10
-4.76887e-11
2.5661e-10
-6.13643e-11
2.54534e-10
-7.50623e-11
2.51892e-10
-8.87329e-11
2.48602e-10
-1.02294e-10
2.44587e-10
-1.15611e-10
2.39783e-10
-1.28515e-10
2.34137e-10
-1.40767e-10
2.2765e-10
-1.52104e-10
2.20284e-10
-1.62285e-10
2.12238e-10
-1.70766e-10
-1.78032e-10
2.03243e-10
2.70635e-10
-6.69326e-12
2.70056e-10
-1.98805e-11
2.69074e-10
-3.30719e-11
2.67652e-10
-4.62667e-11
2.6574e-10
-5.9452e-11
2.63276e-10
-7.2598e-11
2.6019e-10
-8.56477e-11
2.56413e-10
-9.8517e-11
2.51876e-10
-1.11074e-10
2.46525e-10
-1.23164e-10
2.4032e-10
-1.34562e-10
2.3327e-10
-1.45054e-10
2.25352e-10
-1.54368e-10
2.16758e-10
-1.62171e-10
-1.6853e-10
2.07256e-10
2.80736e-10
-6.45567e-12
2.80039e-10
-1.91833e-11
2.78862e-10
-3.18948e-11
2.77171e-10
-4.45759e-11
2.74921e-10
-5.7202e-11
2.72057e-10
-6.9734e-11
2.68518e-10
-8.21087e-11
2.64243e-10
-9.42415e-11
2.59174e-10
-1.06005e-10
2.5327e-10
-1.1726e-10
2.46501e-10
-1.27793e-10
2.38885e-10
-1.37438e-10
2.30413e-10
-1.45896e-10
2.21269e-10
-1.53028e-10
-1.58522e-10
2.11261e-10
2.90917e-10
-6.17684e-12
2.90097e-10
-1.83633e-11
2.88717e-10
-3.05153e-11
2.86749e-10
-4.26072e-11
2.84151e-10
-5.46042e-11
2.80876e-10
-6.64593e-11
2.76873e-10
-7.81053e-11
2.72089e-10
-8.94581e-11
2.66481e-10
-1.00396e-10
2.60016e-10
-1.10795e-10
2.52677e-10
-1.20455e-10
2.44492e-10
-1.29252e-10
2.35464e-10
-1.36868e-10
2.25771e-10
-1.43334e-10
-1.48008e-10
2.15257e-10
3.01176e-10
-5.85542e-12
3.00229e-10
-1.7416e-11
2.9864e-10
-2.89266e-11
2.96385e-10
-4.03518e-11
2.93429e-10
-5.16481e-11
2.89732e-10
-6.2763e-11
2.85253e-10
-7.36265e-11
2.79952e-10
-8.41564e-11
2.73794e-10
-9.42384e-11
2.66761e-10
-1.03762e-10
2.58847e-10
-1.12542e-10
2.50088e-10
-1.20493e-10
2.40502e-10
-1.27282e-10
2.30259e-10
-1.33091e-10
-1.36991e-10
2.19242e-10
3.11512e-10
-5.49006e-12
3.10434e-10
-1.63374e-11
3.08629e-10
-2.7122e-11
3.06078e-10
-3.78006e-11
3.02753e-10
-4.83236e-11
2.98624e-10
-5.8634e-11
2.93659e-10
-6.86612e-11
2.87829e-10
-7.83261e-11
2.81112e-10
-8.75219e-11
2.73503e-10
-9.61524e-11
2.65008e-10
-1.04047e-10
2.55671e-10
-1.11155e-10
2.45525e-10
-1.17136e-10
2.34731e-10
-1.22297e-10
-1.25474e-10
2.23214e-10
3.21927e-10
-5.07945e-12
3.20712e-10
-1.5123e-11
3.18685e-10
-2.50946e-11
3.15829e-10
-3.49449e-11
3.12126e-10
-4.46201e-11
3.07553e-10
-5.40611e-11
3.0209e-10
-6.3198e-11
2.9572e-10
-7.19561e-11
2.88435e-10
-8.0237e-11
2.80241e-10
-8.79584e-11
2.71158e-10
-9.49643e-11
2.61238e-10
-1.01235e-10
2.50529e-10
-1.06427e-10
2.39183e-10
-1.10951e-10
-1.13461e-10
2.2717e-10
3.32421e-10
-4.62224e-12
3.31066e-10
-1.37688e-11
3.28809e-10
-2.28374e-11
3.2564e-10
-3.17755e-11
3.21547e-10
-4.05271e-11
3.16518e-10
-4.90328e-11
3.10546e-10
-5.72251e-11
3.03624e-10
-6.50349e-11
2.9576e-10
-7.23727e-11
2.86972e-10
-7.91704e-11
2.77294e-10
-8.52859e-11
2.66786e-10
-9.07276e-11
2.55511e-10
-9.51525e-11
2.43612e-10
-9.9052e-11
-1.00957e-10
2.31107e-10
3.42996e-10
-4.11711e-12
3.41498e-10
-1.22704e-11
3.39004e-10
-2.03437e-11
3.35512e-10
-2.82833e-11
3.31019e-10
-3.60336e-11
3.25523e-10
-4.3537e-11
3.19028e-10
-5.073e-11
3.11543e-10
-5.75502e-11
3.03088e-10
-6.39178e-11
2.93696e-10
-6.97781e-11
2.83413e-10
-7.50033e-11
2.72311e-10
-7.96256e-11
2.60467e-10
-8.33084e-11
2.48014e-10
-8.65989e-11
-8.79651e-11
2.35023e-10
3.53658e-10
-3.56267e-12
3.52011e-10
-1.06235e-11
3.49274e-10
-1.76062e-11
3.45449e-10
-2.44589e-11
3.40544e-10
-3.11284e-11
3.34568e-10
-3.75612e-11
3.27538e-10
-4.36995e-11
3.19477e-10
-4.94888e-11
3.10418e-10
-5.48596e-11
3.00411e-10
-5.97703e-11
2.89514e-10
-6.41071e-11
2.77811e-10
-6.79221e-11
2.65393e-10
-7.08907e-11
2.52383e-10
-7.35891e-11
-7.44929e-11
2.38911e-10
3.64411e-10
-2.95754e-12
3.62611e-10
-8.82352e-12
3.59623e-10
-1.46177e-11
3.55456e-10
-2.02925e-11
3.50128e-10
-2.57999e-11
3.43659e-10
-3.10924e-11
3.36079e-10
-3.61198e-11
3.27427e-10
-4.08368e-11
3.17752e-10
-4.51845e-11
3.07116e-10
-4.91343e-11
2.95595e-10
-5.25865e-11
2.83282e-10
-5.56084e-11
2.70285e-10
-5.78945e-11
2.56715e-10
-6.00186e-11
-6.05459e-11
2.42768e-10
3.75261e-10
-2.30025e-12
3.73303e-10
-6.866e-12
3.70056e-10
-1.13707e-11
3.65538e-10
-1.5774e-11
3.59774e-10
-2.00357e-11
3.52798e-10
-2.41167e-11
3.44654e-10
-2.79762e-11
3.35397e-10
-3.15788e-11
3.2509e-10
-3.48777e-11
3.13812e-10
-3.7856e-11
3.01655e-10
-4.04295e-11
2.8872e-10
-4.26738e-11
2.7514e-10
-4.43141e-11
2.61002e-10
-4.58815e-11
-4.6129e-11
2.46586e-10
3.86215e-10
-1.5893e-12
3.84096e-10
-4.74618e-12
3.80582e-10
-7.85742e-12
3.75701e-10
-1.0893e-11
3.69489e-10
-1.38233e-11
3.61992e-10
-1.66198e-11
3.53269e-10
-1.9253e-11
3.43389e-10
-2.16988e-11
3.32434e-10
-2.39233e-11
3.20498e-10
-2.59197e-11
3.07691e-10
-2.76228e-11
2.94123e-10
-2.91051e-11
2.79952e-10
-3.01439e-11