/*--------------------------------*- C++ -*----------------------------------*\
| =========                 |                                                 |
| \\      /  F ield         | OpenFOAM: The Open Source CFD Toolbox           |
|  \\    /   O peration     | Version:  5.x                                   |
|   \\  /    A nd           | Web:      www.OpenFOAM.org                      |
|    \\/     M anipulation  |                                                 |
\*---------------------------------------------------------------------------*/
FoamFile
{
    version     2.0;
    format      ascii;
    class       volVectorField;
    location    "0.015";
    object      U;
}
// * * * * * * * * * * * * * * * * * * * * * * * * * * * * * * * * * * * * * //

dimensions      [0 1 -1 0 0 0 0];

internalField   nonuniform List<vector> 
7200
(
(-0.000926631 -4.83679e-05 0)
(-0.000924992 -0.000141942 5.49144e-23)
(-0.000861359 -0.000229689 -3.04761e-22)
(-0.00089722 -0.000327376 0)
(-0.000674613 -0.000359458 -7.13409e-22)
(-0.00095069 -0.000544072 2.13931e-22)
(-0.00019859 -0.00029716 -3.11189e-21)
(-0.00138725 -0.00101219 3.0374e-23)
(0.000990537 0.000405429 -7.96892e-21)
(-0.00278629 -0.00236979 0)
(0.00331482 0.00247901 -1.20277e-22)
(-0.00466004 -0.00443815 1.70032e-20)
(0.00393116 0.00292416 0)
(-0.00226626 -0.000959074 -1.06202e-20)
(0.000693013 -0.000413341 -1.73511e-21)
(-0.00273482 -0.000147758 -3.65205e-25)
(-0.00271339 -0.000439026 3.61198e-25)
(-0.00256072 -0.000708283 0)
(-0.00256601 -0.00100071 -1.25363e-23)
(-0.00210999 -0.00113407 1.04792e-21)
(-0.00247104 -0.00158141 -5.34674e-22)
(-0.00114429 -0.00113779 2.05341e-23)
(-0.00289662 -0.00256118 -1.40456e-21)
(0.000925517 0.000132451 1.17776e-20)
(-0.00471345 -0.00513648 1.95629e-23)
(0.00478417 0.00431799 1.40606e-20)
(-0.00770455 -0.00982393 -2.54665e-20)
(0.00668829 0.00701563 3.08976e-20)
(-0.00391865 -0.0030471 1.65883e-20)
(0.00198724 -0.00096235 -1.23646e-21)
(-0.00445807 -0.000245382 -1.62667e-24)
(-0.00441113 -0.000730438 3.9574e-25)
(-0.00418832 -0.00118216 -8.21024e-24)
(-0.00412795 -0.00165106 7.93983e-24)
(-0.00351788 -0.00192717 0)
(-0.00382197 -0.00251957 1.09616e-21)
(-0.00218606 -0.00215112 1.01234e-23)
(-0.00407534 -0.00367112 1.38796e-21)
(0.000545042 -0.000961931 3.67823e-23)
(-0.00614105 -0.00628882 -4.68279e-21)
(0.00594527 0.00353112 -1.95286e-21)
(-0.0108725 -0.0116404 1.47284e-22)
(0.0106881 0.00854512 -3.21967e-20)
(-0.00670354 -0.00467007 0)
(0.00374892 -0.00131801 5.74704e-21)
(-0.00608906 -0.000341388 2.51007e-24)
(-0.0060137 -0.00101885 1.07829e-22)
(-0.00573099 -0.00165034 0)
(-0.00558692 -0.00229228 -6.13062e-22)
(-0.0048663 -0.00271484 -8.58756e-25)
(-0.0050331 -0.0034317 -1.28413e-21)
(-0.00325531 -0.00318345 0)
(-0.00497064 -0.00468469 0)
(-0.00014091 -0.0022078 0)
(-0.00683391 -0.00704874 4.85465e-21)
(0.00605784 0.00201523 -1.28196e-20)
(-0.0124436 -0.011976 7.02632e-23)
(0.0136866 0.00868087 1.0707e-22)
(-0.00924071 -0.00599388 -2.34452e-23)
(0.00586144 -0.00152209 -3.10158e-21)
(-0.00762041 -0.000435967 -2.1926e-24)
(-0.00751556 -0.00130309 -1.07362e-22)
(-0.00717848 -0.00211212 -2.71566e-22)
(-0.00694397 -0.00292266 1.25756e-21)
(-0.00613232 -0.0034933 -1.14756e-21)
(-0.00613231 -0.00432242 6.72003e-22)
(-0.0042789 -0.00421044 2.17807e-23)
(-0.00570382 -0.00565322 0)
(-0.000900497 -0.00347403 -2.72382e-24)
(-0.0071657 -0.00768468 2.37261e-24)
(0.00568684 0.000330311 7.19316e-23)
(-0.0128819 -0.0116292 -5.75116e-23)
(0.0157159 0.00790028 2.21581e-20)
(-0.0113712 -0.0070286 0)
(0.00837606 -0.00160987 3.03665e-21)
(-0.00904436 -0.000528886 -5.11205e-25)
(-0.00890998 -0.00158181 3.66736e-24)
(-0.0085219 -0.00256565 -1.3649e-23)
(-0.00819582 -0.00353973 -6.58852e-22)
(-0.00730194 -0.0042581 2.32277e-21)
(-0.00712862 -0.00519135 2.40526e-23)
(-0.00522171 -0.00521829 -2.24056e-23)
(-0.00632611 -0.0065938 0)
(-0.00162426 -0.00470512 0)
(-0.0073188 -0.00829454 0)
(0.00519462 -0.00128077 0)
(-0.0126421 -0.0110578 1.13495e-20)
(0.0169937 0.00653956 -2.30822e-20)
(-0.0130404 -0.00777518 5.65836e-23)
(0.0113234 -0.00160805 -6.47301e-21)
(-0.0103527 -0.000619779 0)
(-0.0101893 -0.00185378 -3.32137e-24)
(-0.00975264 -0.0030088 2.87855e-22)
(-0.00933656 -0.00414107 -7.28171e-22)
(-0.0083649 -0.00500478 2.95054e-23)
(-0.0080213 -0.0060366 0)
(-0.00606607 -0.00619754 0)
(-0.00685284 -0.00751066 0)
(-0.00226571 -0.00587519 3.94466e-21)
(-0.00735477 -0.00891146 2.22863e-21)
(0.00474628 -0.00272283 -4.72201e-23)
(-0.0120109 -0.0105351 -1.12551e-20)
(0.0176869 0.00487747 1.85551e-20)
(-0.0141684 -0.00824796 4.42884e-23)
(0.0147234 -0.00153747 1.50441e-22)
(-0.0115366 -0.00070822 -3.74903e-24)
(-0.011345 -0.00211771 -3.48838e-24)
(-0.0108619 -0.00343933 -3.04974e-22)
(-0.0103588 -0.00472401 1.50582e-21)
(-0.00931212 -0.00572906 -2.4735e-21)
(-0.00880517 -0.0068548 -8.71496e-24)
(-0.00680086 -0.00714139 -2.06858e-21)
(-0.00728449 -0.00840068 -6.69836e-22)
(-0.00280201 -0.00697448 -8.84758e-23)
(-0.00728925 -0.00953717 -2.27237e-21)
(0.00440752 -0.00398486 0)
(-0.0111761 -0.010191 0)
(0.0179575 0.00313179 -3.68083e-20)
(-0.0146751 -0.00846943 4.66941e-23)
(0.0185901 -0.00141468 1.72504e-22)
(-0.0125866 -0.000793732 3.76335e-24)
(-0.012368 -0.00237223 -3.66243e-24)
(-0.0118403 -0.00385483 6.35125e-22)
(-0.0112539 -0.00528551 4.30419e-23)
(-0.0101347 -0.0064266 1.23268e-21)
(-0.00947282 -0.00764154 -1.08943e-21)
(-0.00741706 -0.00804412 4.21272e-21)
(-0.00761532 -0.00925734 6.36828e-22)
(-0.00321936 -0.0080003 -3.89836e-21)
(-0.00712393 -0.0101619 1.39464e-21)
(0.00419497 -0.00509143 -2.95985e-23)
(-0.0102564 -0.0100552 -1.15592e-22)
(0.0179777 0.00146255 1.81312e-20)
(-0.0144951 -0.00846576 0)
(0.0229316 -0.00125309 1.73488e-22)
(-0.0134928 -0.000875798 -4.86071e-24)
(-0.0132484 -0.00261588 -1.55307e-22)
(-0.0126782 -0.00425272 -3.26973e-22)
(-0.0120126 -0.00582225 -8.25184e-22)
(-0.0108234 -0.0070929 -1.99728e-23)
(-0.0100154 -0.00839175 1.16111e-21)
(-0.00790604 -0.00890012 2.33583e-23)
(-0.00783673 -0.010073 -1.02072e-21)
(-0.00350844 -0.00895175 3.72652e-23)
(-0.00685738 -0.0107735 -1.42847e-21)
(0.00410245 -0.00607147 0)
(-0.00930877 -0.0100971 0)
(0.0179202 -1.81363e-05 -5.54817e-23)
(-0.0135783 -0.00826538 8.28685e-23)
(0.0277502 -0.00106363 3.72677e-21)
(-0.0142444 -0.000953868 4.87938e-24)
(-0.0139755 -0.00284707 3.24697e-22)
(-0.013365 -0.00463028 -8.63698e-24)
(-0.0126246 -0.00633063 1.22472e-23)
(-0.0113682 -0.00772319 1.40177e-21)
(-0.0104232 -0.0090999 8.49518e-24)
(-0.00825877 -0.00970353 -2.21454e-21)
(-0.00793883 -0.0108398 2.1815e-21)
(-0.00366224 -0.00982734 -3.82687e-23)
(-0.0064882 -0.0113587 -6.91199e-23)
(0.00411994 -0.00694379 5.93737e-23)
(-0.00833903 -0.0102542 -6.42055e-21)
(0.0179502 -0.00123753 1.53434e-20)
(-0.0118899 -0.00789808 4.52717e-23)
(0.0330424 -0.00085536 -3.70011e-21)
(-0.0148299 -0.00102736 0)
(-0.0145379 -0.00306413 -1.69619e-22)
(-0.0138894 -0.00498466 1.32287e-23)
(-0.0130789 -0.00680679 -1.28716e-23)
(-0.0117584 -0.00831244 -2.84339e-21)
(-0.0106852 -0.00975997 -8.50576e-24)
(-0.00846547 -0.010448 2.78917e-23)
(-0.00791107 -0.0115491 -1.11818e-21)
(-0.00367452 -0.0106235 -3.94303e-23)
(-0.00601391 -0.0119026 0)
(0.00424572 -0.00771255 0)
(-0.00731332 -0.0104513 6.57653e-21)
(0.0182201 -0.00215515 -1.58694e-20)
(-0.00940944 -0.00739406 -6.90735e-21)
(0.0387999 -0.000635783 3.94896e-21)
(-0.0152371 -0.00109567 0)
(-0.0149236 -0.0032653 0)
(-0.0142395 -0.00531284 1.38799e-23)
(-0.0133635 -0.00724663 6.2196e-24)
(-0.0119825 -0.00885534 -8.78032e-23)
(-0.0107898 -0.0103655 2.23172e-23)
(-0.00851539 -0.0111266 -2.33793e-21)
(-0.00774218 -0.012192 0)
(-0.00353824 -0.0113339 -2.62671e-23)
(-0.00542802 -0.012387 5.6795e-23)
(0.00449283 -0.00836833 0)
(-0.00616931 -0.010614 0)
(0.0188653 -0.00275648 0)
(-0.00613092 -0.00678301 1.38437e-20)
(0.0450099 -0.000411066 0)
(-0.0154532 -0.00115818 0)
(-0.0151197 -0.00344876 1.99839e-22)
(-0.0144024 -0.0056117 3.97034e-22)
(-0.0134656 -0.00764583 0)
(-0.0120278 -0.00934632 1.4706e-21)
(-0.0107241 -0.0109098 5.5625e-23)
(-0.00839656 -0.0117315 4.70395e-21)
(-0.00741976 -0.0127581 1.68508e-21)
(-0.00324386 -0.0119489 0)
(-0.0047171 -0.0127907 -1.05941e-22)
(0.00489112 -0.00889201 6.25314e-23)
(-0.00482634 -0.0106776 0)
(0.0200015 -0.00304727 3.30662e-23)
(-0.00206129 -0.00609335 -6.91277e-21)
(0.0516557 -0.000186194 7.92098e-21)
(-0.0154644 -0.00121424 7.06035e-24)
(-0.0151124 -0.00361259 -8.95941e-23)
(-0.0143644 -0.00587803 -5.17262e-24)
(-0.0133715 -0.00799991 1.48504e-23)
(-0.0118807 -0.00977954 2.58571e-23)
(-0.0104741 -0.0113854 -5.81574e-23)
(-0.00809551 -0.0122544 5.23523e-23)
(-0.00692947 -0.013236 -1.64182e-21)
(-0.0027776 -0.0124558 0)
(-0.00385857 -0.0130901 0)
(0.00548632 -0.0092596 0)
(-0.00319457 -0.0105917 0)
(0.0217229 -0.00304855 0)
(0.00278086 -0.00535152 0)
(0.0587181 3.49265e-05 -8.46204e-21)
(-0.0152562 -0.00126321 -8.02416e-24)
(-0.0148872 -0.00375488 -1.05722e-22)
(-0.0141109 -0.00610854 -8.30319e-22)
(-0.0130664 -0.00830426 -3.79114e-23)
(-0.0115263 -0.010149 -5.5014e-24)
(-0.0100244 -0.0117847 2.59463e-23)
(-0.00759686 -0.0126858 -2.54051e-21)
(-0.00625422 -0.0136134 3.33429e-23)
(-0.00212014 -0.0128396 3.65111e-23)
(-0.00281987 -0.0132605 -9.71895e-22)
(0.00633713 -0.00944701 7.26348e-21)
(-0.00118278 -0.0103224 0)
(0.0241013 -0.00279212 1.419e-20)
(0.00836708 -0.00458144 1.84533e-23)
(0.0661756 0.00024938 -8.27941e-21)
(-0.0148135 -0.00130445 1.04138e-23)
(-0.0144288 -0.00387369 -1.03208e-24)
(-0.0136266 -0.00629994 4.3267e-22)
(-0.0125346 -0.0085542 -2.32986e-23)
(-0.0109485 -0.0104484 -1.70441e-21)
(-0.00935805 -0.0120997 -3.6266e-23)
(-0.00688297 -0.0130161 -2.57799e-21)
(-0.0053734 -0.0138767 -2.20573e-21)
(-0.00124573 -0.0130842 0)
(-0.0015588 -0.0132785 9.53796e-22)
(0.00751103 -0.00943405 -7.40339e-21)
(0.00129531 -0.00985237 -3.05183e-21)
(0.0271867 -0.00231659 -1.45711e-20)
(0.014661 -0.00380401 1.63191e-23)
(0.0740053 0.000455149 8.8175e-21)
(-0.0141202 -0.00133732 6.72239e-25)
(-0.0137212 -0.00396712 0)
(-0.0128949 -0.00644899 0)
(-0.0117591 -0.00874509 1.31992e-21)
(-0.01013 -0.0106717 1.74371e-21)
(-0.00845633 -0.0123225 9.24334e-24)
(-0.00593359 -0.013235 5.37799e-21)
(-0.00426238 -0.0140126 4.53667e-21)
(-0.000122008 -0.0131734 0)
(-2.50035e-05 -0.0131237 -1.5707e-21)
(0.00907959 -0.00920718 7.31296e-21)
(0.00431618 -0.00917948 2.96838e-21)
(0.0310084 -0.00166409 -1.39593e-20)
(0.0216205 -0.00303686 5.53702e-21)
(0.0821841 0.000651014 0)
(-0.0131598 -0.00136123 -1.1272e-23)
(-0.0127475 -0.00403333 -1.26285e-22)
(-0.0118989 -0.00655254 -1.80881e-23)
(-0.0107221 -0.00887239 -5.83423e-22)
(-0.00905177 -0.0108127 -2.44304e-23)
(-0.00729866 -0.012445 0)
(-0.00472563 -0.0133326 -2.72215e-21)
(-0.00289227 -0.0140081 -2.40761e-21)
(0.00128948 -0.0130928 4.20824e-21)
(0.00183774 -0.0127808 1.63785e-21)
(0.0111139 -0.0087613 -1.47339e-20)
(0.00794305 -0.00831461 0)
(0.0355769 -0.000877373 1.43865e-20)
(0.0291991 -0.00229418 -5.7654e-21)
(0.0906885 0.000836441 -8.77992e-21)
(-0.0119149 -0.0013756 1.15188e-23)
(-0.0114901 -0.00407058 1.21983e-22)
(-0.0106203 -0.00660764 -4.7713e-22)
(-0.00940464 -0.00893185 -6.98005e-22)
(-0.00769371 -0.0108659 -1.92562e-21)
(-0.00586248 -0.0124599 0)
(-0.00323312 -0.0132998 -4.43411e-23)
(-0.00123015 -0.0138518 4.16461e-23)
(0.00303218 -0.0128309 -4.30949e-21)
(0.00408863 -0.0122407 -8.40905e-23)
(0.0136806 -0.0081003 1.48493e-20)
(0.0122239 -0.00727883 1.36623e-21)
(0.0408864 2.41792e-06 1.37587e-20)
(0.0373489 -0.00158673 5.32868e-21)
(0.0994962 0.00101145 9.28348e-21)
(-0.0103676 -0.00137994 -2.25408e-23)
(-0.00993084 -0.00407733 -1.25167e-24)
(-0.00904044 -0.00661163 3.80658e-24)
(-0.00778677 -0.00891961 -7.51571e-22)
(-0.0060342 -0.0108259 -5.57996e-23)
(-0.00412336 -0.0123605 -4.23489e-23)
(-0.00142742 -0.0131284 4.03279e-23)
(0.000760363 -0.0135347 0)
(0.0051529 -0.0123805 4.46224e-21)
(0.00678683 -0.0115013 8.6103e-23)
(0.0168384 -0.00723675 -2.00892e-22)
(0.0171906 -0.00610044 -2.62085e-21)
(0.0469174 0.00093746 -2.7539e-20)
(0.046021 -0.000922012 -3.12094e-22)
(0.108585 0.00117651 0)
(-0.00849971 -0.00137381 1.22853e-23)
(-0.00805104 -0.00405224 0)
(-0.00713974 -0.00656222 5.22233e-22)
(-0.00584764 -0.00883239 -2.3948e-23)
(-0.00405041 -0.0106886 -5.50992e-23)
(-0.00205518 -0.0121414 -4.38902e-23)
(0.000722452 -0.0128126 -3.0821e-21)
(0.00311818 -0.013051 -3.01684e-21)
(0.00769984 -0.0117394 -9.08307e-21)
(0.00998857 -0.0105681 8.79436e-23)
(0.0206353 -0.00619082 -1.49099e-20)
(0.0228592 -0.00481213 1.81727e-21)
(0.0536398 0.00189447 1.3868e-20)
(0.0551681 -0.000304536 -1.04569e-20)
(0.117936 0.00133235 -9.22317e-21)
(-0.00629239 -0.00135687 1.36864e-24)
(-0.00583153 -0.00399425 -1.50749e-22)
(-0.00489817 -0.00645763 -5.34382e-22)
(-0.00356568 -0.00866763 7.72654e-22)
(-0.00171845 -0.0104507 2.04446e-21)
(0.000369613 -0.0117988 2.53462e-21)
(0.00324914 -0.0123486 3.10744e-21)
(0.00588358 -0.0123987 3.04812e-21)
(0.0107206 -0.0109109 4.62189e-21)
(0.0137445 -0.00945349 8.95612e-23)
(0.0251074 -0.0049887 6.36679e-23)
(0.0292313 -0.00344827 -7.22404e-22)
(0.0610157 0.00284542 -1.30332e-20)
(0.0647449 0.000263815 1.02615e-20)
(0.12753 0.0014799 9.75075e-21)
(-0.00372672 -0.00132888 0)
(-0.00325285 -0.00390263 1.50012e-22)
(-0.00229529 -0.00629663 -1.46487e-23)
(-0.000918718 -0.00842368 0)
(0.000986304 -0.0101101 2.22865e-21)
(0.00317948 -0.0113308 -2.49645e-21)
(0.00618621 -0.0117359 3.21359e-21)
(0.0090968 -0.01158 4.97966e-23)
(0.0142601 -0.00990382 -6.2896e-23)
(0.0180978 -0.00817598 -3.12687e-21)
(0.0302781 -0.00366073 7.48203e-21)
(0.0362953 -0.00204275 0)
(0.0690017 0.00376784 1.33998e-20)
(0.0747093 0.000783335 -2.38442e-22)
(0.137351 0.00162014 -3.1529e-23)
(-0.000783648 -0.00128975 1.47172e-24)
(-0.000295455 -0.00377705 -8.54826e-24)
(0.000689538 -0.00607872 5.82168e-22)
(0.00211568 -0.00809994 3.09199e-23)
(0.00408892 -0.00966662 -4.4876e-21)
(0.00640328 -0.0107377 4.82857e-23)
(0.00956719 -0.0109768 1.28995e-23)
(0.0127966 -0.0106014 -3.45769e-21)
(0.0183588 -0.00873228 4.76843e-21)
(0.0230822 -0.00675912 3.38521e-21)
(0.0361577 -0.00223953 -8.29944e-23)
(0.044029 -0.000627123 3.55174e-22)
(0.0775522 0.00464476 -1.18024e-22)
(0.0850232 0.00125602 -5.06603e-21)
(0.147383 0.00175401 0)
(0.00255578 -0.0012395 0)
(0.00306017 -0.0036176 -7.28978e-24)
(0.00407695 -0.00580412 7.20275e-24)
(0.00555997 -0.00769697 0)
(0.00761442 -0.00912146 -4.54888e-23)
(0.0100696 -0.0100224 2.80258e-21)
(0.0134247 -0.0100771 -3.53112e-21)
(0.0170191 -0.00947367 3.54644e-21)
(0.0230511 -0.00741495 -4.89375e-21)
(0.0287218 -0.0052301 9.27116e-23)
(0.0427449 -0.000758178 -7.32201e-21)
(0.0524019 0.000770622 -2.3115e-22)
(0.0866207 0.00546436 0)
(0.0956523 0.00168509 4.69459e-21)
(0.157614 0.00188233 0)
(0.00631025 -0.00117831 1.56611e-24)
(0.00683325 -0.00342485 5.92615e-24)
(0.00788728 -0.00547392 -6.03734e-22)
(0.0094363 -0.0072166 -2.31899e-23)
(0.0115874 -0.00847775 4.6936e-21)
(0.0142062 -0.00919015 -2.72164e-21)
(0.0177892 -0.00904586 -4.88131e-23)
(0.0217962 -0.00821148 0)
(0.0283645 -0.00597418 5.02943e-21)
(0.0350302 -0.00361819 -6.4281e-23)
(0.0500278 0.000751437 7.43016e-21)
(0.0613772 0.00212691 7.324e-23)
(0.0961621 0.00621939 1.18218e-20)
(0.106567 0.00207454 -4.8673e-21)
(0.16803 0.00200575 9.782e-21)
(0.010498 -0.00110655 1.67055e-23)
(0.0110425 -0.00319985 -7.6641e-24)
(0.0121403 -0.00509004 1.26417e-21)
(0.0137661 -0.00666197 0)
(0.0160314 -0.00774045 -2.3396e-21)
(0.0188392 -0.00824859 2.80664e-21)
(0.0226885 -0.0078951 -9.21769e-24)
(0.0271549 -0.00683273 -3.73864e-21)
(0.0343185 -0.00443499 -5.02076e-21)
(0.0420113 -0.00195337 0)
(0.0579854 0.00225985 0)
(0.0709147 0.00342296 1.22755e-22)
(0.106133 0.00690648 -1.23851e-20)
(0.11774 0.0024287 0)
(0.178623 0.00212472 -2.01507e-20)
(0.0151364 -0.0010247 -1.84207e-23)
(0.015706 -0.00294418 1.63933e-24)
(0.0168551 -0.00465532 3.44222e-23)
(0.0185699 -0.00603752 9.01739e-22)
(0.0209687 -0.00691632 0)
(0.0239922 -0.00720781 9.42677e-23)
(0.0281466 -0.00663955 -5.094e-23)
(0.0331164 -0.00535795 7.71187e-21)
(0.0409246 -0.00282392 4.95715e-21)
(0.0496596 -0.000265005 4.01532e-21)
(0.0665897 0.00374102 0)
(0.0809723 0.00464476 0)
(0.116495 0.00752534 5.84902e-24)
(0.129151 0.00275192 -4.36246e-21)
(0.189383 0.00223948 4.05296e-22)
(0.0202423 -0.00093345 -8.79938e-24)
(0.0208407 -0.00265989 0)
(0.0220495 -0.00417343 -6.24245e-22)
(0.0238666 -0.00534898 -9.55561e-22)
(0.0264193 -0.0060138 -1.25157e-21)
(0.0296862 -0.00607991 8.6182e-23)
(0.0341832 -0.00529613 -5.17995e-23)
(0.0396957 -0.00380939 -3.99054e-21)
(0.0481866 -0.00116797 -5.09404e-21)
(0.0579617 0.00141931 -3.93805e-21)
(0.0758075 0.00517285 0)
(0.0915082 0.0057828 1.15627e-21)
(0.127212 0.00807803 0)
(0.140781 0.00304825 2.63526e-22)
(0.200302 0.00235005 1.04218e-20)
(0.0258311 -0.00083361 7.12058e-24)
(0.0264626 -0.00234953 1.93079e-22)
(0.0277399 -0.00364889 1.75359e-23)
(0.0296736 -0.00460325 9.32161e-22)
(0.0324013 -0.00504285 1.259e-21)
(0.0359389 -0.0048787 -3.03527e-21)
(0.0408135 -0.00388337 -6.20733e-23)
(0.0469014 -0.0022103 -1.40386e-23)
(0.0561005 0.000506425 6.95786e-23)
(0.0668976 0.00307454 9.16018e-23)
(0.0856025 0.00653756 -2.2637e-23)
(0.102482 0.00683155 -1.35204e-21)
(0.138252 0.00856815 9.56662e-23)
(0.152613 0.0033213 4.45686e-21)
(0.211371 0.00245627 1.00146e-20)
(0.0319169 -0.000726154 0)
(0.0325859 -0.0020161 -1.92258e-22)
(0.0339411 -0.00308696 8.14291e-24)
(0.036006 -0.00380826 -9.62259e-22)
(0.0389296 -0.0040147 4.48775e-23)
(0.0427641 -0.00361935 1.12017e-23)
(0.0480474 -0.00242084 -5.30579e-23)
(0.0547359 -0.00058401 0)
(0.0646561 0.00217425 5.01738e-21)
(0.0764416 0.00467888 0)
(0.0959363 0.00782153 -6.60154e-21)
(0.113854 0.00778881 1.36382e-21)
(0.149588 0.00900027 -1.04311e-20)
(0.164633 0.00357404 0)
(0.222584 0.00255785 -2.05345e-20)
(0.0385125 -0.000612178 -1.76146e-24)
(0.0392236 -0.00166297 1.75331e-24)
(0.0406662 -0.00249353 7.08118e-22)
(0.0428768 -0.0029728 -2.58081e-23)
(0.0460164 -0.00294156 -1.29128e-21)
(0.0501718 -0.00231789 5.52195e-23)
(0.05589 -0.000928499 -1.1637e-22)
(0.0631957 0.00104672 -1.3056e-23)
(0.0738371 0.0038126 5.02709e-23)
(0.0865646 0.00621401 1.98989e-23)
(0.106771 0.00901515 6.63443e-21)
(0.125591 0.00865507 4.87082e-23)
(0.161196 0.00937929 1.57772e-20)
(0.176832 0.0038088 4.37637e-23)
(0.233935 0.00265435 1.04783e-20)
(0.0456289 -0.000492888 9.27179e-24)
(0.0463866 -0.00129385 -1.97538e-22)
(0.047926 -0.00187505 9.75795e-24)
(0.0502963 -0.00210637 -9.85234e-22)
(0.0536707 -0.00183632 1.29888e-21)
(0.0581679 -0.000990816 -1.56626e-21)
(0.0643412 0.000573871 0)
(0.0722719 0.00266039 -7.31279e-23)
(0.0836226 0.00540113 -4.97166e-21)
(0.0972347 0.00766523 8.76498e-23)
(0.118068 0.0101123 -2.0594e-23)
(0.137661 0.00943272 -1.63411e-21)
(0.173055 0.00971007 -5.10779e-21)
(0.189197 0.00402723 -3.83474e-21)
(0.245416 0.00274526 -3.28989e-23)
(0.0532753 -0.000369576 -1.10968e-23)
(0.054084 -0.000912724 1.91738e-22)
(0.055729 -0.00123833 -4.29117e-25)
(0.058272 -0.00121887 9.90277e-22)
(0.061898 -0.000712236 -1.29988e-21)
(0.0667541 0.000345377 6.35605e-23)
(0.0733967 0.00206719 -5.37156e-23)
(0.081951 0.00423725 0)
(0.0939882 0.00692241 -7.27388e-23)
(0.108419 0.00902135 1.54649e-22)
(0.129791 0.01111 -8.01003e-23)
(0.150034 0.0101255 0)
(0.185148 0.00999711 -2.68572e-24)
(0.201721 0.0042304 4.00874e-21)
(0.257022 0.00283007 0)
(0.0614588 -0.000243592 0)
(0.0623226 -0.000523735 -8.44827e-24)
(0.0640816 -0.000590468 -1.05562e-21)
(0.066809 -0.000320457 -1.00013e-21)
(0.0707007 0.00041742 2.64179e-21)
(0.0759284 0.0016746 1.63457e-21)
(0.0830476 0.00353352 -3.81087e-21)
(0.0922156 0.00575964 -7.17717e-23)
(0.104907 0.00836201 -3.24529e-24)
(0.120084 0.0102744 1.5215e-22)
(0.141908 0.0120075 5.88467e-21)
(0.162686 0.0107378 0)
(0.197459 0.0102443 0)
(0.214395 0.00441881 0)
(0.268746 0.00290822 0)
(0.0701846 -0.00011632 -1.79045e-24)
(0.0711072 -0.000131123 1.02295e-23)
(0.0729875 6.13753e-05 2.02969e-23)
(0.0759093 0.000578713 1.9571e-21)
(0.0800776 0.00153963 -1.2607e-21)
(0.0856852 0.00298153 -9.93301e-23)
(0.0932814 0.00495644 7.5648e-21)
(0.103045 0.00721228 -7.07953e-23)
(0.116349 0.00970845 6.78481e-23)
(0.132196 0.0114194 0)
(0.154387 0.012806 -6.06246e-21)
(0.175594 0.0112745 0)
(0.209975 0.010455 -4.48189e-21)
(0.22721 0.00459254 -1.63158e-24)
(0.280582 0.00297924 -9.93281e-21)
(0.0794557 1.0852e-05 0)
(0.0804404 0.000260859 1.8939e-22)
(0.082448 0.000710065 3.05741e-24)
(0.085572 0.0014687 -9.93266e-22)
(0.0900248 0.00264191 1.28535e-21)
(0.0960154 0.00425189 -1.49333e-21)
(0.104082 0.00632127 -5.6474e-21)
(0.114416 0.00858232 -3.94754e-21)
(0.128287 0.0109531 0)
(0.144725 0.0124538 7.99637e-23)
(0.1672 0.0135082 -7.51946e-23)
(0.18874 0.0117402 0)
(0.222684 0.0106316 2.53983e-22)
(0.240159 0.00475134 0)
(0.292525 0.00304269 1.03505e-20)
(0.0892731 0.000136557 1.77048e-24)
(0.0903224 0.000648036 -1.91961e-22)
(0.0924621 0.00134866 3.44585e-22)
(0.0957938 0.00233997 0)
(0.100535 0.00371256 -1.29275e-21)
(0.106907 0.00547273 3.08972e-21)
(0.115432 0.00761528 1.7946e-21)
(0.126304 0.00985936 3.97424e-21)
(0.140689 0.0120899 6.57263e-23)
(0.15764 0.0133768 7.7775e-23)
(0.18032 0.0141174 -7.33425e-23)
(0.202105 0.0121393 -1.65942e-21)
(0.235574 0.0107762 4.44963e-21)
(0.253235 0.00489475 0)
(0.304567 0.0030982 9.78586e-21)
(0.0996355 0.000259475 0)
(0.100751 0.00102638 1.94493e-22)
(0.103026 0.00197052 3.55142e-22)
(0.106569 0.00318355 9.65896e-24)
(0.111599 0.00474083 -3.49218e-23)
(0.118345 0.00663254 -1.48894e-21)
(0.127311 0.0088277 -1.83616e-21)
(0.138683 0.0110354 -6.68886e-23)
(0.153527 0.013115 -2.29574e-24)
(0.170913 0.0141896 -3.75634e-21)
(0.193724 0.0146375 0)
(0.215675 0.0124759 1.69167e-21)
(0.248635 0.0108901 0)
(0.266429 0.00502217 3.24897e-21)
(0.316703 0.00314552 -4.85712e-22)
(0.11054 0.000378356 6.7585e-24)
(0.111723 0.00139209 -1.85267e-22)
(0.114135 0.00256946 -5.69702e-24)
(0.117888 0.00399121 0)
(0.123204 0.00571709 4.36345e-23)
(0.130314 0.00772139 9.19085e-24)
(0.139696 0.00994979 3.4977e-21)
(0.151527 0.0121044 -6.53227e-23)
(0.166773 0.0140266 -2.0687e-24)
(0.184517 0.0148943 4.00475e-21)
(0.207391 0.0150726 -6.94178e-23)
(0.229436 0.0127534 0)
(0.261857 0.0109743 -6.26353e-25)
(0.279735 0.005133 -3.34554e-21)
(0.328928 0.00318449 -4.85286e-22)
(0.12198 0.000492044 -8.52164e-24)
(0.123231 0.00174162 -8.08881e-24)
(0.125779 0.00313976 -6.29435e-22)
(0.129742 0.00475551 -2.51527e-23)
(0.135337 0.00663291 -1.21943e-21)
(0.142794 0.00873095 1.46127e-21)
(0.152565 0.0109747 -1.7636e-21)
(0.16481 0.0130627 -1.89461e-21)
(0.180399 0.0148244 6.15368e-23)
(0.198429 0.0154939 7.08744e-23)
(0.221302 0.0154268 -2.52149e-21)
(0.243374 0.0129749 -8.19542e-23)
(0.275231 0.0110294 7.58143e-23)
(0.293144 0.00522664 0)
(0.341234 0.00321504 -4.83935e-22)
(0.133949 0.000599484 0)
(0.135267 0.00207179 -8.88074e-23)
(0.137951 0.00367635 3.29693e-22)
(0.142117 0.00546994 0)
(0.147981 0.00748111 3.03337e-23)
(0.155765 0.00965451 -3.93806e-23)
(0.165894 0.0118974 0)
(0.178506 0.013908 1.78506e-21)
(0.194379 0.0155095 2.14731e-21)
(0.212625 0.015992 -5.92117e-23)
(0.235439 0.0157041 4.90756e-21)
(0.257479 0.013143 -4.76513e-23)
(0.288747 0.0110558 -2.30009e-25)
(0.30665 0.00530261 -2.95731e-21)
(0.353616 0.0032372 -9.80159e-21)
(0.146438 0.000699748 -1.6263e-24)
(0.147822 0.00237976 8.30089e-23)
(0.150637 0.00417475 7.7543e-24)
(0.155 0.00612894 8.71603e-22)
(0.161119 0.00825581 6.52096e-23)
(0.169208 0.0104869 -1.39168e-21)
(0.17966 0.0127146 -1.67702e-21)
(0.19259 0.0146398 -1.79835e-21)
(0.208688 0.016084 -1.9284e-21)
(0.227086 0.0163926 8.60339e-24)
(0.249786 0.0159082 -1.35883e-22)
(0.271738 0.0132598 7.61229e-22)
(0.302396 0.0110539 -3.52854e-21)
(0.320245 0.00536054 3.03894e-21)
(0.366068 0.0032511 0)
(0.159436 0.000792032 0)
(0.160883 0.00266308 -8.48581e-23)
(0.163824 0.00463119 2.39768e-23)
(0.168374 0.00672792 -4.8522e-23)
(0.174732 0.00895238 2.31902e-21)
(0.1831 0.0112244 -4.7431e-23)
(0.193838 0.0134244 1.63485e-21)
(0.207036 0.0152585 1.80454e-21)
(0.223305 0.0165507 1.89726e-21)
(0.24179 0.0166996 1.66899e-21)
(0.264327 0.0160426 -1.18774e-22)
(0.286141 0.0133273 -1.00451e-22)
(0.316169 0.0110238 3.67234e-21)
(0.333922 0.0054002 -2.92793e-26)
(0.378586 0.00325694 -9.00666e-21)
(0.17293 0.000875672 -1.5367e-24)
(0.174437 0.00291972 7.93097e-23)
(0.177498 0.00504256 7.40491e-24)
(0.182223 0.00726324 -8.88885e-22)
(0.188801 0.00956739 -1.10951e-21)
(0.19742 0.0118646 7.53237e-24)
(0.208405 0.0140262 -4.52558e-23)
(0.221822 0.0157659 1.58054e-21)
(0.238206 0.016913 -1.91695e-21)
(0.256721 0.0169174 -1.89949e-23)
(0.27905 0.0161106 -6.96983e-23)
(0.300679 0.0133474 -1.63069e-21)
(0.330057 0.010966 -3.27001e-21)
(0.347675 0.00542153 2.68309e-21)
(0.391163 0.00325499 9.30131e-21)
(0.186906 0.000950138 0)
(0.18847 0.00314805 0)
(0.191643 0.00540646 0)
(0.196529 0.00773224 0)
(0.203306 0.0100986 0)
(0.212145 0.0124065 4.47144e-23)
(0.223338 0.0145207 -9.35309e-23)
(0.236925 0.0161645 -3.24004e-21)
(0.253372 0.0171747 1.06871e-22)
(0.271863 0.0170499 -1.62684e-21)
(0.293941 0.0161152 -2.19297e-21)
(0.315341 0.0133216 1.55349e-21)
(0.344052 0.0108808 6.47891e-21)
(0.361495 0.00542461 -5.34481e-21)
(0.403796 0.00324559 0)
(0.20135 0.00101504 4.41889e-24)
(0.202967 0.00334687 8.46631e-24)
(0.206241 0.00572114 -7.00197e-24)
(0.211274 0.00813313 0)
(0.218226 0.0105447 0)
(0.227255 0.01285 4.32934e-23)
(0.238615 0.0149093 1.39702e-21)
(0.252323 0.0164573 3.07458e-21)
(0.268783 0.01734 -1.64914e-21)
(0.287198 0.0171012 0)
(0.308986 0.0160593 4.27859e-23)
(0.330118 0.0132515 -7.21676e-23)
(0.358146 0.0107688 -3.20443e-21)
(0.375378 0.00540965 5.16581e-21)
(0.416478 0.00322912 0)
(0.216246 0.00107011 -5.87677e-24)
(0.217909 0.00351534 0)
(0.221276 0.00598551 2.14897e-23)
(0.226437 0.00846496 -5.03076e-23)
(0.233542 0.0109055 2.86888e-23)
(0.242726 0.013196 0)
(0.254214 0.0151945 -1.44944e-21)
(0.267997 0.0166482 -1.59278e-21)
(0.284422 0.0174131 1.76508e-21)
(0.302714 0.0170755 0)
(0.324176 0.0159456 0)
(0.345001 0.0131388 -6.91492e-22)
(0.372329 0.0106306 -5.89516e-23)
(0.389317 0.00537701 -4.98962e-21)
(0.429206 0.003206 0)
(0.231576 0.00111523 -1.31995e-24)
(0.233281 0.00365303 -5.27232e-24)
(0.236728 0.00619906 -1.42412e-23)
(0.242001 0.00872758 -3.61766e-22)
(0.249231 0.0111817 -3.45397e-23)
(0.258539 0.0134463 1.20077e-21)
(0.270114 0.0153794 0)
(0.283927 0.0167411 -4.85178e-23)
(0.300272 0.0173984 1.61763e-21)
(0.318395 0.0169765 5.21633e-23)
(0.339498 0.015777 -5.0474e-23)
(0.359982 0.0129851 0)
(0.386595 0.010467 0)
(0.403307 0.00532716 2.47654e-21)
(0.441976 0.00317668 0)
(0.247324 0.00115037 2.1864e-24)
(0.249064 0.00375984 6.95116e-23)
(0.252579 0.00636185 0)
(0.257944 0.00892153 -1.21755e-23)
(0.265275 0.0113746 6.01726e-23)
(0.274672 0.0136034 -2.37046e-21)
(0.286295 0.0154674 -1.25128e-21)
(0.300095 0.0167404 1.32118e-21)
(0.316316 0.0173004 -7.7881e-23)
(0.334231 0.0168082 4.49442e-23)
(0.354943 0.015556 3.80204e-23)
(0.375052 0.012792 2.04743e-23)
(0.400937 0.0102789 -5.45341e-23)
(0.417342 0.00526063 0)
(0.454782 0.00314162 0)
(0.26347 0.00117564 -3.39558e-24)
(0.26524 0.003836 -6.8613e-23)
(0.26881 0.00647445 0)
(0.274248 0.00904797 3.9726e-22)
(0.281653 0.0114861 -2.58949e-23)
(0.291106 0.0136703 1.13162e-21)
(0.302739 0.0154627 1.29798e-21)
(0.316483 0.0166508 -1.37782e-21)
(0.33254 0.0171235 -1.47494e-21)
(0.350207 0.0165742 -4.31545e-23)
(0.370499 0.0152853 0)
(0.390203 0.0125613 7.08393e-22)
(0.415347 0.0100672 -5.20296e-23)
(0.431417 0.00517804 -2.08803e-25)
(0.467622 0.00310131 0)
(0.279997 0.00119122 0)
(0.281789 0.00388206 0)
(0.285402 0.00653788 0)
(0.290892 0.00910865 -3.43003e-22)
(0.298345 0.0115191 -4.39972e-22)
(0.307822 0.0136507 0)
(0.319427 0.0153695 0)
(0.333075 0.0164769 -4.28433e-23)
(0.348931 0.0168723 -3.4314e-25)
(0.366313 0.0162785 8.70777e-23)
(0.386158 0.0149674 -4.44259e-23)
(0.405427 0.0122948 -1.2925e-21)
(0.429819 0.00983308 1.99804e-25)
(0.445528 0.00508007 -1.90152e-25)
(0.480492 0.00305622 0)
(0.296887 0.0011974 0)
(0.298694 0.0038988 0)
(0.302336 0.00655357 -2.29264e-22)
(0.307859 0.00910577 3.4463e-22)
(0.315332 0.0114765 4.88955e-23)
(0.3248 0.0135486 -2.943e-23)
(0.336342 0.0151926 0)
(0.349856 0.0162236 1.16902e-21)
(0.365474 0.0165511 -2.7262e-25)
(0.382538 0.0159246 3.9672e-23)
(0.40191 0.0146051 1.51854e-21)
(0.420719 0.0119944 6.55244e-22)
(0.444347 0.00957758 -4.76181e-23)
(0.459671 0.00496743 -1.69675e-25)
(0.493388 0.0030068 0)
(0.31412 0.00119454 -1.01576e-24)
(0.315936 0.00388724 -5.16932e-23)
(0.319593 0.0065233 4.97547e-24)
(0.325128 0.00904197 -2.32451e-23)
(0.332595 0.011362 4.48262e-22)
(0.342023 0.0133682 3.31659e-23)
(0.353467 0.0149366 1.06338e-21)
(0.366812 0.0158957 -1.25752e-21)
(0.382158 0.0161645 -2.10237e-25)
(0.398872 0.0155163 3.79946e-23)
(0.417748 0.014201 -8.32495e-23)
(0.436071 0.0116618 0)
(0.458925 0.00930187 -2.21249e-21)
(0.473841 0.00484085 1.93153e-21)
(0.506307 0.0029535 -6.79931e-21)
(0.331678 0.00118306 0)
(0.333497 0.00384864 5.83588e-23)
(0.337156 0.00644918 2.04366e-22)
(0.342682 0.00892026 1.6457e-23)
(0.350118 0.0111793 2.74013e-23)
(0.359475 0.0131141 -5.20547e-22)
(0.370787 0.0146067 -1.0712e-21)
(0.383928 0.0154984 -3.75708e-23)
(0.398971 0.0157169 -1.55345e-25)
(0.415305 0.0150571 3.63692e-23)
(0.433663 0.0137576 -2.75103e-21)
(0.451477 0.0112991 1.53661e-23)
(0.473546 0.0090071 2.19804e-21)
(0.488034 0.00470105 -1.96178e-21)
(0.519246 0.00289675 6.92694e-21)
(0.349544 0.00116345 -2.61787e-25)
(0.351358 0.00378439 8.93737e-25)
(0.355005 0.00633355 1.58594e-23)
(0.360503 0.00874392 5.63136e-24)
(0.367882 0.0109326 -2.12682e-23)
(0.377139 0.0127912 4.33552e-22)
(0.388287 0.014208 3.01565e-23)
(0.401191 0.0150365 0)
(0.415901 0.0152126 -1.12211e-21)
(0.431828 0.0145506 -1.07276e-21)
(0.449647 0.0132777 1.36343e-21)
(0.46693 0.0109081 4.28523e-23)
(0.488207 0.00869444 -4.1481e-23)
(0.502248 0.00454877 2.06863e-23)
(0.532202 0.00283693 -1.97875e-23)
(0.3677 0.00113624 -1.85723e-24)
(0.369502 0.00369607 5.07417e-23)
(0.373124 0.00617901 0)
(0.378575 0.00851652 2.79977e-22)
(0.385872 0.0106264 0)
(0.395 0.0124044 2.92196e-23)