/*--------------------------------*- C++ -*----------------------------------*\
| =========                 |                                                 |
| \\      /  F ield         | OpenFOAM: The Open Source CFD Toolbox           |
|  \\    /   O peration     | Version:  5.x                                   |
|   \\  /    A nd           | Web:      www.OpenFOAM.org                      |
|    \\/     M anipulation  |                                                 |
\*---------------------------------------------------------------------------*/
FoamFile
{
    version     2.0;
    format      ascii;
    class       volScalarField;
    location    "0.02";
    object      p;
}
// * * * * * * * * * * * * * * * * * * * * * * * * * * * * * * * * * * * * * //

dimensions      [0 2 -2 0 0 0 0];

internalField   nonuniform List<scalar> 
7200
(
-0.000187773
0.0635678
0.176506
0.187375
0.442449
0.148785
1.13348
-0.775034
3.91221
-6.19496
16.5775
-31.1947
61.8092
-87.3057
77.6864
0.00121754
0.0693653
0.183876
0.20588
0.443773
0.21288
1.04877
-0.46399
3.2652
-4.52581
12.9803
-23.7856
49.9617
-74.044
71.9103
0.00273542
0.0742604
0.191764
0.220175
0.452374
0.253212
1.0184
-0.294983
2.95263
-3.64246
11.0589
-19.4693
42.4087
-64.6557
67.8785
0.00415258
0.0792575
0.199407
0.234517
0.461404
0.290687
0.998116
-0.156912
2.72649
-2.98492
9.68931
-16.3219
36.6715
-56.9546
64.2012
0.00556277
0.0846082
0.207169
0.249626
0.471016
0.328164
0.98323
-0.0319473
2.54439
-2.43766
8.59576
-13.7726
31.9241
-50.1931
60.7749
0.00699496
0.0902565
0.215185
0.265267
0.481637
0.365043
0.974357
0.0803239
2.40211
-1.98632
7.73727
-11.7291
28.0602
-44.2988
57.6166
0.00845405
0.0961555
0.223492
0.281314
0.493334
0.401257
0.970962
0.182055
2.2921
-1.61094
7.06706
-10.0935
24.9651
-39.2051
54.7039
0.00994517
0.102281
0.232117
0.297732
0.506103
0.436988
0.972261
0.275815
2.20683
-1.29131
6.53925
-8.76422
22.4979
-34.8152
52.0083
0.0114739
0.108615
0.241079
0.314498
0.519928
0.472398
0.977653
0.363528
2.14095
-1.01218
6.11991
-7.66187
20.5345
-31.0388
49.5066
0.0130448
0.115136
0.250387
0.331592
0.534786
0.507609
0.986675
0.446622
2.09077
-0.762281
5.78424
-6.7269
18.9701
-27.7963
47.1792
0.0146612
0.121828
0.260041
0.348996
0.550639
0.542721
0.99896
0.52621
2.05372
-0.533319
5.5137
-5.91496
17.7161
-25.0161
45.0086
0.0163246
0.128673
0.270032
0.366689
0.567443
0.577812
1.01422
0.603165
2.02802
-0.319379
5.29425
-5.19402
16.6979
-22.6338
42.9793
0.0180349
0.135653
0.280346
0.384649
0.585145
0.61294
1.0322
0.678166
2.01235
-0.116464
5.11512
-4.54188
15.8546
-20.5912
41.0775
0.0197902
0.14275
0.290959
0.402846
0.603684
0.648137
1.0527
0.751713
2.00563
0.0779025
4.96781
-3.94397
15.1368
-18.8368
39.2909
0.0215871
0.149942
0.301842
0.421244
0.622984
0.683408
1.07549
0.824134
2.00685
0.265017
4.84538
-3.39134
14.506
-17.3248
37.6082
0.0234201
0.157206
0.312958
0.439798
0.642959
0.718728
1.10034
0.89558
2.01495
0.445299
4.74195
-2.87903
13.9328
-16.0152
36.0195
0.0252824
0.164517
0.324261
0.458453
0.663503
0.754032
1.12698
0.966029
2.02881
0.618478
4.65254
-2.40479
13.3954
-14.8734
34.5157
0.0271654
0.171843
0.335698
0.477138
0.684492
0.789217
1.15509
1.03529
2.04719
0.783811
4.57276
-1.96788
12.8787
-13.8695
33.0887
0.0290589
0.179152
0.347207
0.495772
0.705778
0.824133
1.18428
1.10303
2.06873
0.940305
4.49877
-1.56826
12.3729
-12.9784
31.731
0.0309512
0.186405
0.358717
0.514256
0.727192
0.858585
1.2141
1.16878
2.09205
1.08683
4.42722
-1.20608
11.8723
-12.1791
30.4363
0.032829
0.193561
0.370149
0.532479
0.74854
0.892336
1.24407
1.23198
2.11573
1.22223
4.3553
-0.881237
11.3742
-11.4545
29.1987
0.0346776
0.200574
0.381414
0.550313
0.769608
0.925111
1.27365
1.29198
2.13841
1.34547
4.28073
-0.593141
10.8784
-10.7906
28.013
0.0364811
0.207393
0.392417
0.56762
0.790162
0.956602
1.30227
1.34813
2.15879
1.45566
4.20179
-0.340658
10.3861
-10.1765
26.8749
0.0382227
0.213965
0.403057
0.584249
0.809955
0.986486
1.32936
1.39979
2.17571
1.55216
4.11728
-0.122094
9.89926
-9.60359
25.7802
0.0398844
0.220235
0.413228
0.600043
0.828732
1.01442
1.35436
1.44634
2.18816
1.63457
4.0265
0.0647273
9.42044
-9.0654
24.7258
0.0414482
0.226145
0.42282
0.61484
0.846236
1.04009
1.37674
1.48725
2.19534
1.70278
3.92923
0.22235
8.95215
-8.55715
23.7086
0.0428954
0.231637
0.431725
0.628482
0.862218
1.06315
1.39603
1.52208
2.19663
1.75694
3.82562
0.353553
8.49675
-8.07538
22.7263
0.0442079
0.236656
0.439836
0.64081
0.876439
1.08334
1.4118
1.55048
2.19162
1.79744
3.71616
0.461221
8.05621
-7.61766
21.7769
0.0453679
0.241145
0.447052
0.65168
0.888682
1.10038
1.42372
1.57224
2.18012
1.82491
3.6016
0.54822
7.63209
-7.18235
20.8585
0.0463588
0.245053
0.453277
0.660958
0.898755
1.11408
1.43152
1.58729
2.16211
1.84015
3.48282
0.617296
7.22545
-6.76831
19.97
0.0471654
0.248334
0.458428
0.668529
0.906498
1.12428
1.43504
1.59564
2.13775
1.84411
3.36085
0.671003
6.83691
-6.37481
19.1101
0.047774
0.250947
0.462432
0.674296
0.911787
1.13086
1.43419
1.59743
2.10732
1.83781
3.23669
0.711648
6.46669
-6.00129
18.278
0.0481731
0.252858
0.465229
0.678187
0.914534
1.1338
1.42897
1.59291
2.07125
1.82235
3.11137
0.741268
6.11467
-5.64732
17.4729
0.0483536
0.254041
0.466777
0.680155
0.914691
1.13308
1.41945
1.58242
2.03002
1.79884
2.98583
0.76162
5.78045
-5.31251
16.6943
0.0483089
0.254478
0.467046
0.680176
0.912248
1.12879
1.40578
1.56633
1.9842
1.76837
2.86092
0.774195
5.46345
-4.99641
15.9417
0.0480348
0.254161
0.466025
0.678253
0.907233
1.12102
1.38817
1.54512
1.93437
1.73198
2.73737
0.780235
5.16295
-4.69855
15.2148
0.04753
0.25309
0.46372
0.674413
0.89971
1.10993
1.36687
1.51925
1.88114
1.69066
2.61582
0.780772
4.87817
-4.41836
14.513
0.0467962
0.251272
0.46015
0.668708
0.889773
1.0957
1.34218
1.48925
1.82511
1.64532
2.49676
0.776651
4.60829
-4.15521
13.8362
0.0458371
0.248727
0.455352
0.661209
0.877546
1.07857
1.31442
1.45563
1.76685
1.59678
2.38059
0.76857
4.3525
-3.90841
13.1839
0.0446595
0.245478
0.449375
0.652009
0.863176
1.05877
1.28393
1.41889
1.70692
1.54578
2.26762
0.757112
4.11002
-3.67719
12.5559
0.0432722
0.24156
0.442281
0.641214
0.846829
1.03657
1.25106
1.37954
1.64581
1.49297
2.15805
0.742769
3.88012
-3.46076
11.9516
0.0416861
0.23701
0.434142
0.628948
0.828688
1.01224
1.21617
1.33806
1.584
1.43892
2.05204
0.725965
3.66213
-3.25828
11.3708
0.0399142
0.231874
0.425041
0.615343
0.808945
0.986046
1.17959
1.29489
1.5219
1.38414
1.94967
0.707079
3.45541
-3.06892
10.8129
0.0379707
0.226201
0.415068
0.600541
0.7878
0.95828
1.14168
1.25047
1.4599
1.32905
1.851
0.686454
3.25942
-2.89184
10.2774
0.0358715
0.220045
0.404317
0.584689
0.765458
0.929214
1.10275
1.20518
1.39832
1.27403
1.75604
0.664407
3.07361
-2.72621
9.7638
0.0336334
0.213463
0.392888
0.567937
0.742122
0.899115
1.06312
1.15938
1.33746
1.21941
1.6648
0.641237
2.89751
-2.57122
9.27145
0.0312739
0.206512
0.380882
0.550439
0.717996
0.868243
1.02307
1.1134
1.27759
1.16546
1.57725
0.617225
2.73067
-2.42608
8.7997
0.0288112
0.199253
0.368404
0.532345
0.693275
0.836846
0.98287
1.06754
1.21892
1.11243
1.49336
0.592637
2.57267
-2.29004
8.34787
0.0262635
0.191746
0.355555
0.513804
0.668153
0.805157
0.94278
1.02207
1.16166
1.06053
1.4131
0.567725
2.42311
-2.16238
7.91524
0.0236496
0.184051
0.342437
0.494961
0.642812
0.773399
0.903028
0.977228
1.10598
1.00994
1.33643
0.542724
2.28161
-2.04243
7.50105
0.0209877
0.176226
0.329151
0.475957
0.617429
0.741777
0.863824
0.933231
1.05202
0.960832
1.2633
0.517854
2.1478
-1.92955
7.10452
0.0182961
0.168331
0.315792
0.456927
0.59217
0.710484
0.825362
0.890275
0.99991
0.913339
1.19368
0.493317
2.02132
-1.82311
6.72486
0.0155927
0.160422
0.302455
0.438
0.56719
0.679698
0.78782
0.848534
0.949767
0.867585
1.12751
0.469299
1.90183
-1.72256
6.36125
0.0128947
0.152552
0.289229
0.419298
0.542637
0.649584
0.751356
0.80816
0.901686
0.823677
1.06475
0.445965
1.78899
-1.62737
6.0129
0.0102189
0.144775
0.276199
0.400936
0.518647
0.620294
0.716116
0.769293
0.85575
0.781709
1.00534
0.423469
1.68248
-1.53702
5.67899
0.00758169
0.13714
0.263446
0.383024
0.495348
0.591966
0.68223
0.732056
0.812032
0.741762
0.949241
0.401944
1.58196
-1.45106
5.3587
0.00499845
0.129695
0.251047
0.365661
0.472858
0.564729
0.649818
0.696558
0.770593
0.703909
0.896399
0.38151
1.48715
-1.36905
5.05126
0.00248412
0.122485
0.239074
0.348945
0.451287
0.538698
0.618988
0.662898
0.731491
0.668214
0.846768
0.362276
1.39775
-1.29058
4.7559
5.29039e-05
0.115551
0.227595
0.332962
0.430736
0.513984
0.589838
0.631166
0.694774
0.634732
0.800301
0.344336
1.31349
-1.21529
4.47185
-0.00228167
0.108936
0.216673
0.317797
0.4113
0.490683
0.562458
0.601444
0.660489
0.603516
0.756956
0.327778
1.23409
-1.14281
4.19843
-0.00450674
0.102675
0.206368
0.303527
0.393067
0.468889
0.536932
0.573806
0.628677
0.574615
0.716696
0.312682
1.15934
-1.07284
3.93495
-0.00661005
0.0968048
0.196736
0.290224
0.376117
0.448686
0.513336
0.548324
0.59938
0.548076
0.679491
0.299123
1.089
-1.00508
3.68078
-0.00858
0.0913587
0.187829
0.277955
0.360528
0.430153
0.491744
0.525064
0.57264
0.523947
0.645319
0.287173
1.02289
-0.939259
3.43537
-0.0104055
0.086368
0.179696
0.266783
0.346369
0.413368
0.472226
0.504092
0.5485
0.502278
0.614168
0.276906
0.960852
-0.875144
3.19821
-0.0120762
0.0818621
0.172384
0.256768
0.33371
0.398399
0.454849
0.485474
0.527007
0.483124
0.586037
0.268396
0.902746
-0.81252
2.96888
-0.013582
0.0778687
0.165935
0.247966
0.322613
0.385317
0.439679
0.469274
0.50821
0.466542
0.56094
0.261721
0.84848
-0.751202
2.74703
-0.0149136
0.0744138
0.160391
0.240429
0.31314
0.374187
0.426781
0.455559
0.492166
0.452599
0.538906
0.256966
0.797994
-0.691035
2.53243
-0.0160621
0.0715217
0.155788
0.234208
0.305348
0.365073
0.416222
0.444398
0.478936
0.441369
0.519977
0.254225
0.751274
-0.631895
2.32498
-0.0170191
0.0692153
0.152164
0.229348
0.299294
0.358038
0.408066
0.435862
0.468589
0.432935
0.504217
0.253599
0.708349
-0.57369
2.12469
-0.0177769
0.0675158
0.149552
0.225895
0.295029
0.353143
0.402379
0.430028
0.461201
0.427388
0.491704
0.255203
0.669299
-0.516366
1.93176
-0.018328
0.0664426
0.147982
0.22389
0.292605
0.350448
0.39923
0.426971
0.456853
0.424832
0.482537
0.259162
0.634257
-0.45991
1.74658
-0.0186659
0.0660136
0.147483
0.223372
0.29207
0.35001
0.398684
0.426772
0.455633
0.425378
0.476831
0.265618
0.603409
-0.404354
1.56977
-0.0187847
0.0662448
0.148081
0.224377
0.293469
0.351886
0.400807
0.429514
0.457636
0.429148
0.474718
0.274723
0.576998
-0.34979
1.40222
-0.0186791
0.0671502
0.149798
0.226935
0.296844
0.356129
0.405666
0.43528
0.462961
0.436273
0.476348
0.286649
0.55533
-0.296378
1.24515
-0.0183446
0.0687419
0.152655
0.231077
0.302233
0.36279
0.413325
0.444156
0.47171
0.446891
0.481885
0.301576
0.538775
-0.244383
1.10021
-0.017779
0.0710255
0.156661
0.236818
0.309658
0.371901
0.423828
0.456205
0.483967
0.461122
0.491482
0.319671
0.527753
-0.194221
0.969475
-0.0169828
0.073998
0.161812
0.244151
0.319117
0.383466
0.437186
0.471458
0.499773
0.479057
0.505244
0.341113
0.522631
-0.146342
0.855432
-0.0159383
0.077716
0.168203
0.253215
0.330788
0.397709
0.453666
0.490241
0.51948
0.501154
0.523579
0.36654
0.523984
-0.100904
0.761117
-0.014581
0.0823968
0.176207
0.26454
0.345361
0.415479
0.474282
0.513696
0.544435
0.528703
0.548309
0.396789
0.535106
-0.0607266
0.693772
-0.0132045
0.0871059
0.184271
0.275978
0.36017
0.433588
0.495577
0.537768
0.57113
0.556462
0.577995
0.42295
0.562582
-0.0442821
0.668918
-77.8099
87.1881
-61.925
31.0753
-16.6921
6.07838
-4.0268
0.659609
-1.24832
-0.263822
-0.557227
-0.302024
-0.290823
-0.177415
-0.11302
-0.0223119
0.0420811
0.155508
0.166688
0.421962
0.128417
1.11316
-0.795367
3.89196
-6.21476
16.5589
-31.2115
61.7949
-87.3169
77.68
-72.0347
73.9249
-50.0775
23.6662
-13.0954
4.40918
-3.38001
0.348549
-1.16368
-0.327946
-0.5586
-0.320579
-0.298264
-0.183337
-0.114762
-0.0205699
0.0480035
0.162948
0.185244
0.423327
0.192546
1.02848
-0.484263
3.2451
-4.5453
12.9621
-23.8017
49.9482
-74.0542
71.9045
-68.0037
64.5351
-42.5249
19.3497
-11.1744
3.52565
-3.06764
0.17947
-1.13339
-0.36833
-0.567264
-0.334943
-0.306245
-0.188393
-0.116596
-0.018733
0.0530617
0.170931
0.199609
0.431986
0.232927
0.998162
-0.315155
2.93275
-3.66155
11.0413
-19.4846
42.3962
-64.6649
67.8734
-64.3271
56.8327
-36.7881
16.2021
-9.80529
2.86789
-2.84174
0.0412877
-1.1132
-0.405875
-0.57637
-0.349371
-0.313999
-0.193572
-0.118306
-0.0170174
0.0582467
0.178691
0.214042
0.441092
0.270473
0.977964
-0.176933
2.70689
-3.00354
9.6724
-16.3364
36.6598
-56.963
64.1965
-60.9013
50.07
-32.0415
13.6525
-8.71216
2.32035
-2.6599
-0.083828
-1.09844
-0.443443
-0.586077
-0.364581
-0.321891
-0.199113
-0.119969
-0.0153435
0.0637978
0.186592
0.229261
0.450803
0.308049
0.963205
-0.0517562
2.52516
-2.45573
8.57956
-13.7864
31.9133
-50.2007
60.7705
-57.7435
44.1745
-28.1782
11.6087
-7.85408
1.8687
-2.51791
-0.196287
-1.08971
-0.480437
-0.596809
-0.38034
-0.330051
-0.204952
-0.121627
-0.013672
0.0696514
0.194765
0.245033
0.461545
0.345059
0.954506
0.0607873
2.3833
-2.00378
7.72181
-11.742
28.0501
-44.3058
57.6126
-54.8312
39.0798
-25.0839
9.97269
-7.18428
1.49299
-2.40821
-0.298241
-1.0865
-0.516789
-0.608637
-0.39652
-0.338513
-0.211042
-0.123295
-0.0119859
0.0757596
0.203244
0.261232
0.47339
0.381438
0.951333
0.16285
2.27378
-1.62777
7.05234
-10.1057
24.9557
-39.2116
54.7
-52.136
34.689
-22.6174
8.64299
-6.65688
1.17301
-2.32327
-0.392255
-1.088
-0.552684
-0.621556
-0.413088
-0.347304
-0.217361
-0.124988
-0.0102713
0.0821002
0.212058
0.277823
0.486334
0.417372
0.952903
0.256997
2.18904
-1.30748
6.52526
-8.77568
22.4891
-34.8212
52.0047
-49.6347
30.9117
-20.6547
7.54017
-6.23794
0.893508
-2.25773
-0.480248
-1.09362
-0.58828
-0.63555
-0.430019
-0.356444
-0.223889
-0.126717
-0.00851629
0.0886556
0.221226
0.294784
0.500363
0.453022
0.958612
0.345145
2.12373
-1.02767
6.10662
-7.67266
20.5263
-31.0444
49.5032
-47.3076
27.6685
-19.091
6.60468
-5.9027
0.643227
-2.2079
-0.563645
-1.1029
-0.623701
-0.650596
-0.447295
-0.365941
-0.230611
-0.12849
-0.00671216
0.0954091
0.230756
0.312097
0.515454
0.48851
0.967995
0.428716
2.07414
-0.777103
5.77164
-6.73707
18.9624
-27.8016
47.176
-45.1374
24.8877
-17.8376
5.79221
-5.63258
0.413872
-2.17122
-0.643554
-1.11546
-0.659046
-0.666657
-0.464896
-0.375795
-0.23751
-0.130313
-0.00485278
0.102345
0.240649
0.329743
0.531571
0.523937
0.980681
0.508812
2.0377
-0.547483
5.50174
-5.92456
17.7088
-25.0211
45.0055
-43.1084
22.5048
-16.82
5.0707
-5.41357
0.19953
-2.1459
-0.720845
-1.13101
-0.69439
-0.683687
-0.482801
-0.385999
-0.244569
-0.13219
-0.00293453
0.109447
0.250899
0.347702
0.548668
0.559378
0.996372
0.586301
2.01261
-0.332903
5.2829
-5.20308
16.6911
-22.6384
42.9763
-41.207
20.4617
-15.9772
4.41799
-5.23489
-0.00379604
-2.13061
-0.796193
-1.14931
-0.729788
-0.701632
-0.500988
-0.396535
-0.251772
-0.134122
-0.000956094
0.1167
0.261489
0.365951
0.566692
0.594887
1.01482
0.661851
1.99755
-0.129372
5.10434
-4.55045
15.8481
-20.5956
41.0747
-39.4208
18.7068
-15.26
3.8195
-5.08802
-0.198581
-2.12427
-0.870097
-1.17013
-0.765271
-0.720429
-0.519425
-0.407382
-0.2591
-0.136106
0.00108163
0.124084
0.272397
0.38446
0.58558
0.630493
1.0358
0.735957
1.99143
0.065586
4.95757
-3.95207
15.1308
-18.841
39.2881
-37.7385
17.1944
-14.6297
3.2663
-4.96605
-0.386118
-2.12588
-0.94288
-1.19325
-0.800842
-0.740003
-0.538077
-0.41851
-0.266532
-0.138139
0.00317568
0.131579
0.283594
0.403194
0.605254
0.666197
1.05909
0.808938
1.99323
0.253265
4.83565
-3.39902
14.5003
-17.3288
37.6055
-36.1503
15.8844
-14.0569
2.75344
-4.86308
-0.566827
-2.13438
-1.01469
-1.21845
-0.836472
-0.760262
-0.556896
-0.42988
-0.274045
-0.140216
0.00532106
0.139163
0.295042
0.422104
0.625625
0.701968
1.08446
0.880942
2.0019
0.434084
4.7327
-2.88632
13.9273
-16.0191
36.0169
-34.6469
14.7422
-13.52
2.27866
-4.77413
-0.740433
-2.14863
-1.08551
-1.24544
-0.872096
-0.781101
-0.575825
-0.441445
-0.28161
-0.142329
0.0075108
0.146808
0.306695
0.441134
0.646585
0.737741
1.11162
0.951941
2.01631
0.607773
4.64373
-2.41172
13.3902
-14.8771
34.5132
-33.2203
13.7378
-13.0037
1.84122
-4.6948
-0.906195
-2.1674
-1.15514
-1.2739
-0.907605
-0.802391
-0.594792
-0.453152
-0.289197
-0.144469
0.00973601
0.154485
0.318498
0.460212
0.668005
0.773404
1.14025
1.02175
2.03521
0.77359
4.56438
-1.97446
12.8738
-13.873
33.0861
-31.8631
12.8463
-12.4984
1.4411
-4.62126
-1.06311
-2.18934
-1.22325
-1.30343
-0.942848
-0.823984
-0.613714
-0.464936
-0.296772
-0.146623
0.0119859
0.162158
0.330389
0.479254
0.689736
0.808805
1.16995
1.09001
2.05726
0.930543
4.49078
-1.57454
12.3682
-12.9818
31.7286
-30.5688
12.0466
-11.9982
1.07843
-4.55015
-1.21006
-2.21304
-1.28936
-1.33361
-0.977628
-0.845707
-0.632489
-0.476724
-0.304294
-0.148779
0.0142481
0.16979
0.342294
0.498159
0.711604
0.843746
1.20029
1.15627
2.08106
1.0775
4.41959
-1.21208
11.8677
-12.1825
30.4339
-29.3316
11.3215
-11.5006
0.753099
-4.47867
-1.34587
-2.23711
-1.35292
-1.36393
-1.01171
-0.867364
-0.651003
-0.488434
-0.31172
-0.150922
0.0165081
0.177337
0.354133
0.516813
0.733414
0.877986
1.23077
1.21996
2.10521
1.21331
4.34801
-0.886975
11.3698
-11.4578
29.1963
-28.1464
10.6572
-11.0052
0.464531
-4.40454
-1.46951
-2.26017
-1.41328
-1.39384
-1.0448
-0.888738
-0.669128
-0.499977
-0.319002
-0.153035
0.0187503
0.184751
0.365815
0.535087
0.754947
0.911246
1.26083
1.28044
2.12833
1.33694
4.27376
-0.598641
10.8742
-10.7938
28.0106
-27.0086
10.0426
-10.5133
0.211581
-4.32604
-1.58011
-2.28093
-1.46979
-1.42279
-1.07661
-0.909593
-0.68672
-0.511254
-0.326086
-0.1551
0.0209573
0.191981
0.377244
0.552839
0.775967
0.94322
1.28993
1.33706
2.14913
1.44749
4.19512
-0.345941
10.382
-10.1796
26.8725
-25.9143
9.46916
-10.027
-0.00744641
-4.24196
-1.677
-2.29822
-1.52178
-1.45021
-1.1068
-0.92968
-0.703629
-0.522163
-0.332918
-0.157097
0.0231108
0.198972
0.388316
0.569917
0.796226
0.973578
1.31749
1.38916
2.16645
1.54434
4.11088
-0.127179
9.8953
-9.60667
25.7779
-24.8602
8.93048
-9.54864
-0.194729
-4.15163
-1.75981
-2.31104
-1.56867
-1.47552
-1.13504
-0.948742
-0.719693
-0.532593
-0.339439
-0.159006
0.0251915
0.205667
0.398923
0.586162
0.815466
1.00198
1.34295
1.43614
2.17929
1.62708
4.02036
0.0598231
9.41658
-9.06843
24.7234
-23.8434
8.42175
-9.08083
-0.352812
-4.05479
-1.82841
-2.31857
-1.6099
-1.49821
-1.16099
-0.966519
-0.73475
-0.542433
-0.34559
-0.160807
0.0271796
0.212007
0.408954
0.60141
0.833429
1.0281
1.36577
1.47746
2.18683
1.69559
3.92333
0.21761
8.94839
-8.56013
23.7063
-22.8614
7.93952
-8.62591
-0.484474
-3.95163
-1.88295
-2.32021
-1.64504
-1.5178
-1.18433
-0.98276
-0.748637
-0.551574
-0.351311
-0.162478
0.029055
0.217932
0.418299
0.615499
0.849863
1.05162
1.38549
1.51268
2.18846
1.75004
3.81994
0.348964
8.49307
-8.07832
22.724
-21.9122
7.48135
-8.18586
-0.592599
-3.84262
-1.92383
-2.31556
-1.67374
-1.53385
-1.20477
-0.997225
-0.761196
-0.559905
-0.356542
-0.164
0.0307979
0.223384
0.426849
0.628273
0.864528
1.07224
1.40167
1.54146
2.18379
1.79081
3.71068
0.45677
8.05262
-7.62057
21.7745
-20.9941
7.04561
-7.76222
-0.680049
-3.7285
-1.95168
-2.3044
-1.69581
-1.54604
-1.22206
-1.0097
-0.772279
-0.567323
-0.361226
-0.165352
0.0323891
0.228306
0.434502
0.639582
0.877207
1.0897
1.41399
1.56358
2.1726
1.81854
3.59631
0.543894
7.62857
-7.18522
20.8562
-20.1058
6.63117
-7.35604
-0.74957
-3.61017
-1.96729
-2.28673
-1.71113
-1.5541
-1.23598
-1.01998
-0.781751
-0.573732
-0.36531
-0.166516
0.0338104
0.232645
0.441161
0.649293
0.887707
1.10381
1.42218
1.57897
2.15488
1.83401
3.47771
0.613085
7.22199
-6.77116
19.9677
-19.2461
6.23729
-6.96796
-0.803713
-3.48863
-1.97161
-2.26269
-1.71976
-1.55786
-1.24639
-1.02791
-0.789496
-0.579046
-0.368746
-0.167474
0.0350451
0.236354
0.44674
0.657288
0.895866
1.11441
1.42607
1.58765
2.1308
1.83819
3.35589
0.666899
6.83351
-6.37762
19.1078
-18.4142
5.86342
-6.59817
-0.844781
-3.36492
-1.96568
-2.2326
-1.72182
-1.55724
-1.25317
-1.03337
-0.795417
-0.583191
-0.371492
-0.168212
0.0360783
0.239391
0.451165
0.663472
0.90156
1.12138
1.42557
1.58975
2.10064
1.8321
3.23189
0.707643
6.46335
-6.00407
18.2757
-17.6093
5.50914
-6.24655
-0.874807
-3.24003
-1.95058
-2.19684
-1.71756
-1.55223
-1.25628
-1.03627
-0.79944
-0.586107
-0.373512
-0.168718
0.0368972
0.24172
0.454378
0.667771
0.904701
1.12468
1.42068
1.58554
2.06481
1.81683
3.10671
0.737355
6.11138
-5.65008
17.4706
-16.8308
5.17404
-5.91272
-0.895545
-3.11491
-1.92742
-2.15593
-1.7073
-1.54291
-1.25573
-1.03656
-0.801519
-0.587751
-0.374782
-0.168981
0.0374916
0.243314
0.456331
0.670136
0.90524
1.12433
1.41149
1.57532
2.02382
1.79351
2.9813
0.757793
5.77721
-5.31524
16.6921
-16.0784
4.85769
-5.59608
-0.908483
-2.9904
-1.89729
-2.11041
-1.69146
-1.52944
-1.25158
-1.03424
-0.80163
-0.588093
-0.375282
-0.168995
0.0378537
0.244155
0.456998
0.670544
0.903167
1.12038
1.39813
1.55951
1.97822
1.76321
2.85651
0.770449
5.46026
-4.99912
15.9395
-15.3515
4.5596
-5.29591
-0.914861
-2.86725
-1.86124
-2.06088
-1.67047
-1.51201
-1.24394
-1.02932
-0.799777
-0.587125
-0.375005
-0.168756
0.0379786
0.244233
0.456366
0.668997
0.89851
1.11294
1.38082
1.53855
1.9286
1.72698
2.73308
0.776567
5.15981
-4.70122
15.2125
-14.6498
4.27923
-5.01143
-0.915708
-2.74606
-1.82024
-2.00794
-1.64483
-1.49088
-1.23297
-1.02188
-0.795988
-0.58485
-0.373952
-0.168264
0.0378642
0.243548
0.454438
0.665522
0.891332
1.10216
1.35981
1.51293
1.87557
1.68582
2.61164
0.777177
4.87508
-4.42101
14.5108
-13.973
4.01593
-4.74181
-0.911867
-2.62735
-1.7752
-1.95218
-1.61503
-1.46634
-1.21885
-1.012
-0.790316
-0.581292
-0.372132
-0.167522
0.0375113
0.242106
0.451236
0.66017
0.881728
1.08825
1.33539
1.48316
1.81973
1.64062
2.49268
0.773127
4.60524
-4.15783
13.834
-13.3208
3.769
-4.48625
-0.904036
-2.51151
-1.72694
-1.89419
-1.5816
-1.43873
-1.20181
-0.999828
-0.782834
-0.576487
-0.369565
-0.166535
0.0369232
0.239927
0.446793
0.653013
0.869821
1.07141
1.30788
1.44975
1.76165
1.59222
2.37662
0.765115
4.3495
-3.911
13.1817
-12.6927
3.53769
-4.24398
-0.892794
-2.39883
-1.6762
-1.8345
-1.54506
-1.40838
-1.18209
-0.985496
-0.773637
-0.570487
-0.366278
-0.165312
0.036106
0.237033
0.441161
0.644142
0.855759
1.05189
1.27764
1.41323
1.70188
1.54135
2.26374
0.753723
4.10706
-3.67975
12.5537
-12.0885
3.3212
-4.01425
-0.878633
-2.28953
-1.62363
-1.77363
-1.50588
-1.37564
-1.15996
-0.969178
-0.762833
-0.563358
-0.362307
-0.163864
0.0350682
0.233458
0.4344
0.633664
0.839708
1.02996
1.24501
1.37408
1.64094
1.48867
2.15426
0.739444
3.87721
-3.46328
11.9495
-11.5076
3.11871
-3.7964
-0.861979
-2.18376
-1.5698
-1.71203
-1.46456
-1.34086
-1.13569
-0.951056
-0.750548
-0.555173
-0.357693
-0.162206
0.0338204
0.22924
0.426583
0.621703
0.82185
1.00588
1.21034
1.33279
1.57928
1.43474
2.04834
0.722704
3.65926
-3.26078
11.3687
-10.9496
2.92936
-3.58979
-0.843208
-2.0816
-1.5152
-1.65013
-1.42155
-1.30439
-1.10956
-0.931326
-0.736917
-0.546019
-0.352484
-0.160353
0.0323753
0.224425
0.417791
0.608392
0.802379
0.979933
1.17398
1.2898
1.51733
1.38007
1.94606
0.70388
3.45259
-3.07139
10.8108
-10.4141
2.75232
-3.39387
-0.822665
-1.98311
-1.46028
-1.58831
-1.37727
-1.26658
-1.08185
-0.910189
-0.722085
-0.535987
-0.346734
-0.158323
0.0307471
0.219061
0.408116
0.593871
0.781494
0.952401
1.13627
1.24555
1.45547
1.32509
1.84747
0.683316
3.25664
-2.89428
10.2753
-9.90033
2.58676
-3.20811
-0.800666
-1.8883
-1.4054
-1.52689
-1.3321
-1.22775
-1.05283
-0.887853
-0.706201
-0.525176
-0.340499
-0.156136
0.0289514
0.213203
0.397651
0.578289
0.759401
0.923559
1.09754
1.20043
1.39402
1.27017
1.75259
0.661329
3.07088
-2.72861
9.76173
-9.40785
2.43187
-3.03203
-0.777511
-1.79717
-1.35089
-1.46618
-1.28641
-1.1882
-1.02277
-0.864522
-0.689419
-0.513688
-0.333839
-0.153812
0.0270051
0.206906
0.386497
0.561797
0.736303
0.893673
1.05809
1.15478
1.3333
1.21565
1.66142
0.638218
2.89482
-2.57358
9.26939
-8.93595
2.28686
-2.86518
-0.753481
-1.7097
-1.29703
-1.40642
-1.24054
-1.14823
-0.991941
-0.840402
-0.671893
-0.501629
-0.326817
-0.151372
0.0249257
0.20023
0.374754
0.544545
0.712404
0.863005
1.01822
1.10896
1.27354
1.1618
1.57395
0.614263
2.72803
-2.42841
8.79767
-8.48396
2.15099
-2.70714
-0.728844
-1.62587
-1.24406
-1.34785
-1.19476
-1.10811
-0.960584
-0.815691
-0.653777
-0.489105
-0.319495
-0.148837
0.0227313
0.193233
0.362528
0.526688
0.6879
0.831802
0.978189
1.06324
1.215
1.10886
1.49013
0.589731
2.57007
-2.29234
8.34586
-8.05114
2.02352
-2.55751
-0.703851
-1.54563
-1.19219
-1.29067
-1.14936
-1.06808
-0.928936
-0.790584
-0.635223
-0.47622
-0.311936
-0.146231
0.0204406
0.185977
0.349919
0.508372
0.662985
0.800298
0.93826
1.0179
1.15785
1.05705
1.40994
0.564874
2.42055
-2.16465
7.91325
-7.63674
1.90379
-2.41592
-0.67874
-1.46896
-1.14162
-1.23505
-1.10458
-1.02839
-0.89722
-0.765264
-0.616378
-0.463081
-0.304204
-0.143573
0.0180722
0.178522
0.337031
0.489745
0.637841
0.768716
0.89866
0.973189
1.10227
1.00655
1.33334
0.539928
2.2791
-2.04467
7.49908
-7.23999
1.79115
-2.28198
-0.653732
-1.3958
-1.09249
-1.18113
-1.06063
-0.989245
-0.865642
-0.739911
-0.597385
-0.449788
-0.296362
-0.140887
0.0156447
0.170926
0.323964
0.470946
0.612646
0.737261
0.859602
0.929317
1.04841
0.957526
1.26029
0.51511
2.14533
-1.93175
7.10257
-6.86009
1.68499
-2.15536
-0.629029
-1.32612
-1.04496
-1.12904
-1.01771
-0.950836
-0.834397
-0.714691
-0.57838
-0.436442
-0.288469
-0.138193
0.0131764
0.163249
0.310814
0.452111
0.587565
0.706128
0.82128
0.886479
0.996402
0.910113
1.19073
0.490625
2.01889
-1.82529
6.72293
-6.49623
1.58474
-2.0357
-0.604818
-1.25987
-0.999146
-1.0789
-0.975999
-0.913344
-0.803664
-0.689761
-0.559494
-0.423137
-0.280584
-0.135511
0.0106855
0.155547
0.297675
0.43337
0.562755
0.675494
0.78387
0.84485
0.946354
0.864436
1.12462
0.466656
1.89944
-1.72471
6.35935
-6.14761
1.48987
-1.92267
-0.581268
-1.197
-0.955156
-1.03081
-0.935643
-0.876927
-0.773609
-0.66527
-0.540851
-0.409966
-0.272765
-0.13286
0.0081895
0.147875
0.284637
0.414844
0.538362
0.645524
0.747532
0.804584
0.898363
0.820602
1.06192
0.443371
1.78664
-1.62948
6.01102
-5.81341
1.39986
-1.81594
-0.558531
-1.13746
-0.913087
-0.984846
-0.896785
-0.841734
-0.744383
-0.641356
-0.522568
-0.397014
-0.265064
-0.130261
0.00570553
0.140285
0.271786
0.396649
0.514525
0.61637
0.712411
0.76582
0.852512
0.778705
1.00257
0.420921
1.68016
-1.53911
5.67712
-5.49283
1.31427
-1.7152
-0.536744
-1.08121
-0.873022
-0.941086
-0.859549
-0.807894
-0.716126
-0.618147
-0.504754
-0.384364
-0.257534
-0.127729
0.00324998
0.132827
0.259202
0.378895
0.491371
0.588172
0.678639
0.728679
0.808876
0.738826
0.946522
0.399441
1.57968
-1.45312
5.35686
-5.18507
1.23264
-1.62014
-0.516028
-1.0282
-0.835034
-0.899595
-0.824046
-0.775529
-0.688968
-0.595762
-0.487511
-0.372094
-0.250222
-0.125281
0.000838688
0.12555
0.246964
0.361682
0.469018
0.561057
0.646335
0.693274
0.767515
0.701038
0.893734
0.379051
1.4849
-1.37109
5.04944
-4.88938
1.15458
-1.53047
-0.496492
-0.978385
-0.799188
-0.860428
-0.790377
-0.744748
-0.663026
-0.574311
-0.470935
-0.360276
-0.243175
-0.122934
-0.0015132
0.118498
0.235142
0.345107
0.447577
0.535143
0.615606
0.659702
0.728487
0.665404
0.844154
0.359858
1.39553
-1.2926
4.75409
-4.605
1.0797
-1.44592
-0.478233
-0.931715
-0.765543
-0.823638
-0.758632
-0.715649
-0.638409
-0.553897
-0.455116
-0.348979
-0.236435
-0.120702
-0.00379121
0.111714
0.223806
0.329258
0.427148
0.510538
0.586553
0.628053
0.691841
0.631981
0.797735
0.341958
1.3113
-1.21728
4.47006
-4.33123
1.00767
-1.36624
-0.461341
-0.888154
-0.734153
-0.789272
-0.728893
-0.688323
-0.615217
-0.534614
-0.440137
-0.338266
-0.230043
-0.118598
-0.00598155
0.105239
0.213018
0.314219
0.407828
0.48734
0.559264
0.598409
0.657622
0.600821
0.754436
0.325437
1.23194
-1.14478
4.19666
-4.06739
0.938146
-1.29117
-0.445897
-0.847665
-0.705067
-0.757372
-0.701238
-0.662855
-0.593541
-0.51655
-0.426074
-0.328196
-0.224035
-0.116634
-0.0080711
0.099111
0.20284
0.300067
0.389703
0.465643
0.533823
0.570845
0.625873
0.571973
0.71422
0.310377
1.15721
-1.07478
3.93319
-3.81286
0.870851
-1.22051
-0.431977
-0.81022
-0.678336
-0.727983
-0.675739
-0.639324
-0.573467
-0.499787
-0.413
-0.318825
-0.218446
-0.114823
-0.0100474
0.093365
0.193326
0.286875
0.372855
0.445531
0.510307
0.545433
0.596636
0.545484
0.677057
0.296852
1.0869
-1.007
3.67904
-3.56707
0.805511
-1.15407
-0.419656
-0.775798
-0.654009
-0.701147
-0.652463
-0.617802
-0.555076
-0.4844
-0.400982
-0.310205
-0.21331
-0.113175
-0.0118985
0.088035
0.18453
0.27471
0.35736
0.427085
0.488791
0.522238
0.569952
0.521402
0.642924
0.284934
1.02082
-0.941163
3.43365
-3.32953
0.741887
-1.09169
-0.409008
-0.74439
-0.632137
-0.67691
-0.631478
-0.598361
-0.538443
-0.470462
-0.390082
-0.302384
-0.208657
-0.111699
-0.0136131
0.0831525
0.176501
0.263635
0.343291
0.410379
0.469343
0.501328
0.545864
0.499777
0.611809
0.274697
0.9588
-0.877029
3.1965
-3.09979
0.679765
-1.03323
-0.400108
-0.715997
-0.612776
-0.655319
-0.61285
-0.581069
-0.52364
-0.458038
-0.380359
-0.295406
-0.204513
-0.110405
-0.0151807
0.0787474
0.169285
0.25371
0.330715
0.395485
0.452032
0.482766
0.524419
0.480663
0.583712
0.266214
0.900717
-0.814387
2.96718
-2.87754
0.61896
-0.978609
-0.393039
-0.690634
-0.595986
-0.636427
-0.596645
-0.565992
-0.510735
-0.447193
-0.371869
-0.289314
-0.200907
-0.109302
-0.016591
0.0748474
0.162926
0.244992
0.319695
0.382472
0.436923
0.466619
0.505667
0.46412
0.558647
0.259565
0.846471
-0.753053
2.74534
-2.66253
0.559314
-0.927758
-0.387884
-0.66833
-0.581837
-0.62029
-0.582931
-0.553197
-0.499795
-0.437988
-0.364662
-0.284147
-0.197861
-0.108395
-0.0178344
0.0714787
0.157464
0.237532
0.310293
0.371406
0.424082
0.452953
0.489665
0.450212
0.536642
0.254834
0.796004
-0.692872
2.53076
-2.45465
0.500704
-0.880667
-0.38474
-0.649131
-0.570402
-0.606972
-0.571779
-0.54275
-0.490883
-0.430478
-0.358787
-0.279942
-0.195399
-0.107694
-0.0189017
0.068666
0.152938
0.231382
0.302566
0.362351
0.413574
0.441837
0.476474
0.439015
0.51774
0.252115
0.749301
-0.633718
2.32331
-2.25392
0.443035
-0.837364
-0.383709
-0.633101
-0.561766
-0.596542
-0.563261
-0.534716
-0.484063
-0.42472
-0.354291
-0.276732
-0.193542
-0.107202
-0.0197846
0.0664321
0.149383
0.226588
0.296571
0.35537
0.405466
0.433343
0.466162
0.430609
0.502004
0.251509
0.706393
-0.575501
2.12303
-2.06055
0.386254