/*--------------------------------*- C++ -*----------------------------------*\
| =========                 |                                                 |
| \\      /  F ield         | OpenFOAM: The Open Source CFD Toolbox           |
|  \\    /   O peration     | Version:  5.x                                   |
|   \\  /    A nd           | Web:      www.OpenFOAM.org                      |
|    \\/     M anipulation  |                                                 |
\*---------------------------------------------------------------------------*/
FoamFile
{
    version     2.0;
    format      ascii;
    class       surfaceScalarField;
    location    "0.02";
    object      phi;
}
// * * * * * * * * * * * * * * * * * * * * * * * * * * * * * * * * * * * * * //

dimensions      [0 3 -1 0 0 0 0];

internalField   nonuniform List<scalar> 
14230
(
-4.61272e-13
-4.91868e-15
-4.51682e-13
-9.58496e-15
-4.27583e-13
-2.40929e-14
-4.12775e-13
-1.48006e-14
-3.53359e-13
-5.94062e-14
-3.77213e-13
2.38639e-14
-1.96231e-13
-1.80967e-13
-4.5127e-13
2.55061e-13
2.20132e-13
-6.71371e-13
-9.65168e-13
1.18533e-12
1.32914e-12
-2.29429e-12
-2.15747e-12
3.48661e-12
2.02223e-12
-4.17972e-12
-7.76635e-13
2.79887e-12
-1.495e-12
7.18376e-13
-1.36145e-12
-1.73967e-14
-1.32585e-12
-4.51828e-14
-1.26486e-12
-8.50805e-14
-1.18985e-12
-8.98046e-14
-1.07465e-12
-1.74604e-13
-1.00018e-12
-5.05903e-14
-7.67554e-13
-4.13588e-13
-8.77633e-13
3.65152e-13
-1.81405e-13
-1.36759e-12
-1.2092e-12
2.21314e-12
1.21862e-12
-4.72211e-12
-2.65601e-12
7.36124e-12
2.77345e-12
-9.6092e-12
-1.06245e-12
6.63478e-12
-3.98691e-12
1.42946e-12
-2.2186e-12
-3.67266e-14
-2.15766e-12
-1.06125e-13
-2.06165e-12
-1.81085e-13
-1.92649e-12
-2.24963e-13
-1.76335e-12
-3.37737e-13
-1.57684e-12
-2.37091e-13
-1.33972e-12
-6.50703e-13
-1.19627e-12
2.21709e-13
-7.39035e-13
-1.82482e-12
-1.04485e-12
2.51896e-12
3.62825e-13
-6.12979e-12
-1.92509e-12
9.64915e-12
2.46306e-12
-1.39974e-11
-9.39277e-13
1.00371e-11
-6.90904e-12
1.98285e-12
-3.02884e-12
-6.34598e-14
-2.94451e-12
-1.90444e-13
-2.81199e-12
-3.13606e-13
-2.62379e-12
-4.13156e-13
-2.40292e-12
-5.58606e-13
-2.13078e-12
-5.0923e-13
-1.84322e-12
-9.38255e-13
-1.54286e-12
-7.86455e-14
-1.15287e-12
-2.2148e-12
-1.046e-12
2.41209e-12
-2.14935e-13
-6.96086e-12
-1.27349e-12
1.07077e-11
2.15045e-12
-1.74213e-11
-7.60863e-13
1.29484e-11
-1.03328e-11
2.66292e-12
-3.7889e-12
-9.76928e-14
-3.68246e-12
-2.96882e-13
-3.51365e-12
-4.82418e-13
-3.27613e-12
-6.50673e-13
-2.99531e-12
-8.3942e-13
-2.64897e-12
-8.5556e-13
-2.29478e-12
-1.29244e-12
-1.87911e-12
-4.94313e-13
-1.4829e-12
-2.61101e-12
-1.1156e-12
2.04479e-12
-5.79603e-13
-7.49687e-12
-7.01559e-13
1.08297e-11
1.82103e-12
-1.99439e-11
-4.72322e-13
1.52418e-11
-1.42732e-11
3.46809e-12
-4.49514e-12
-1.39298e-13
-4.36762e-12
-4.24402e-13
-4.16352e-12
-6.86518e-13
-3.87927e-12
-9.34917e-13
-3.53923e-12
-1.17946e-12
-3.12492e-12
-1.26987e-12
-2.69898e-12
-1.71837e-12
-2.18897e-12
-1.00431e-12
-1.75146e-12
-3.04853e-12
-1.20016e-12
1.49349e-12
-7.78725e-13
-7.91831e-12
-2.24755e-13
1.02757e-11
1.50732e-12
-2.16759e-11
-5.59199e-14
1.6805e-11
-1.87366e-11
4.40745e-12
-5.14355e-12
-1.88022e-13
-4.99592e-12
-5.7203e-13
-4.75795e-12
-9.24482e-13
-4.4292e-12
-1.26367e-12
-4.03201e-12
-1.57665e-12
-3.55386e-12
-1.748e-12
-3.05593e-12
-2.2163e-12
-2.46329e-12
-1.59695e-12
-1.96585e-12
-3.54598e-12
-1.26927e-12
7.9691e-13
-8.54037e-13
-8.33355e-12
1.51915e-13
9.26974e-12
1.24833e-12
-2.27723e-11
5.02709e-13
1.75506e-11
-2.37222e-11
5.4883e-12
-5.72979e-12
-2.43531e-13
-5.56304e-12
-7.38776e-13
-5.29289e-12
-1.19463e-12
-4.92181e-12
-1.63474e-12
-4.4702e-12
-2.02825e-12
-3.9316e-12
-2.2866e-12
-3.36366e-12
-2.78424e-12
-2.69536e-12
-2.26524e-12
-2.12754e-12
-4.1138e-12
-1.30649e-12
-2.41502e-14
-8.43222e-13
-8.79683e-12
4.40453e-13
7.98607e-12
1.08067e-12
-2.34126e-11
1.21784e-12
1.74135e-11
-2.92196e-11
6.71525e-12
-6.24919e-12
-3.05447e-13
-6.06437e-12
-9.23592e-13
-5.76389e-12
-1.49511e-12
-5.35276e-12
-2.04586e-12
-4.84983e-12
-2.53118e-12
-4.25398e-12
-2.88245e-12
-3.61899e-12
-3.41922e-12
-2.87969e-12
-3.00454e-12
-2.23591e-12
-4.75758e-12
-1.3051e-12
-9.54971e-13
-7.75237e-13
-9.32669e-12
6.65757e-13
6.54507e-12
1.03889e-12
-2.37857e-11
2.10142e-12
1.63509e-11
-3.52091e-11
8.09092e-12
-6.69675e-12
-3.73355e-13
-6.49498e-12
-1.12536e-12
-6.16614e-12
-1.82395e-12
-5.7174e-12
-2.4946e-12
-5.16647e-12
-3.08211e-12
-4.51663e-12
-3.53229e-12
-3.81803e-12
-4.11781e-12
-3.0115e-12
-3.81107e-12
-2.28998e-12
-5.4791e-12
-1.26379e-12
-1.98117e-12
-6.67582e-13
-9.9229e-12
8.61535e-13
5.01596e-12
1.15472e-12
-2.40789e-11
3.16247e-12
1.43432e-11
-4.16628e-11
9.61611e-12
-7.0671e-12
-4.46817e-13
-6.84957e-12
-1.34288e-12
-6.49448e-12
-2.17903e-12
-6.01074e-12
-2.97834e-12
-5.41525e-12
-3.67759e-12
-4.71488e-12
-4.23265e-12
-3.95642e-12
-4.87628e-12
-3.08643e-12
-4.68106e-12
-2.28879e-12
-6.27675e-12
-1.18253e-12
-3.08743e-12
-5.25836e-13
-1.05796e-11
1.06705e-12
3.42307e-12
1.45611e-12
-2.44679e-11
4.40709e-12
1.13922e-11
-4.85455e-11
1.12898e-11
-7.35452e-12
-5.25374e-13
-7.1225e-12
-1.57489e-12
-6.74334e-12
-2.55819e-12
-6.22735e-12
-3.49434e-12
-5.59091e-12
-4.31402e-12
-4.84366e-12
-4.97989e-12
-4.02939e-12
-5.69055e-12
-3.10025e-12
-5.61021e-12
-2.23095e-12
-7.14606e-12
-1.05949e-12
-4.2589e-12
-3.44488e-13
-1.12946e-11
1.32419e-12
1.75439e-12
1.9665e-12
-2.51102e-11
5.8385e-12
7.52018e-12
-5.58165e-11
1.31095e-11
-7.55291e-12
-6.08554e-13
-7.30772e-12
-1.82008e-12
-6.90675e-12
-2.95915e-12
-6.36139e-12
-4.0397e-12
-5.68769e-12
-4.98772e-12
-4.89744e-12
-5.77014e-12
-4.03178e-12
-6.55621e-12
-3.04845e-12
-6.59353e-12
-2.11367e-12
-8.08085e-12
-8.8894e-13
-5.48362e-12
-1.08567e-13
-1.2075e-11
1.67497e-12
-2.91441e-14
2.70429e-12
-2.61395e-11
7.4572e-12
2.76727e-12
-6.34305e-11
1.50711e-11
-7.65579e-12
-6.95879e-13
-7.39879e-12
-2.07707e-12
-6.97832e-12
-3.37962e-12
-6.40657e-12
-4.61144e-12
-5.69937e-12
-5.69492e-12
-4.87015e-12
-6.59936e-12
-3.95778e-12
-7.46857e-12
-2.92565e-12
-7.62566e-12
-1.93179e-12
-9.07471e-12
-6.60257e-13
-6.75517e-12
2.04228e-13
-1.29395e-11
2.15929e-12
-1.9842e-12
3.68272e-12
-2.7663e-11
9.26114e-12
-2.81115e-12
-7.13389e-11
1.71695e-11
-7.65628e-12
-7.86868e-13
-7.38886e-12
-2.34449e-12
-6.9512e-12
-3.81728e-12
-6.35608e-12
-5.20655e-12
-5.61915e-12
-6.43185e-12
-4.75507e-12
-7.46344e-12
-3.80078e-12
-8.42286e-12
-2.72509e-12
-8.70136e-12
-1.67708e-12
-1.01227e-11
-3.57716e-13
-8.07453e-12
6.2116e-13
-1.39183e-11
2.81322e-12
-4.17626e-12
4.9099e-12
-2.97596e-11
1.1246e-11
-9.1473e-12
-7.94915e-11
1.93986e-11
-7.54714e-12
-8.81048e-13
-7.27067e-12
-2.62096e-12
-6.8181e-12
-4.26984e-12
-6.2026e-12
-5.82205e-12
-5.43962e-12
-7.19483e-12
-4.54473e-12
-8.35833e-12
-3.55305e-12
-9.41455e-12
-2.4381e-12
-9.81631e-12
-1.33777e-12
-1.12231e-11
3.8852e-14
-9.45115e-12
1.17217e-12
-1.50516e-11
3.66774e-12
-6.67183e-12
6.38899e-12
-3.24809e-11
1.34057e-11
-1.6164e-11
-8.78373e-11
2.17515e-11
-7.32071e-12
-9.77962e-13
-7.03652e-12
-2.90514e-12
-6.57125e-12
-4.73511e-12
-5.93824e-12
-6.45506e-12
-5.1527e-12
-7.98036e-12
-4.23072e-12
-9.28032e-12
-3.20549e-12
-1.04398e-11
-2.05377e-12
-1.0968e-11
-8.98613e-13
-1.23782e-11
5.53197e-13
-1.0903e-11
1.88739e-12
-1.63858e-11
4.74791e-12
-9.53235e-12
8.11865e-12
-3.58516e-11
1.57325e-11
-2.37779e-11
-9.63259e-11
2.42211e-11
-6.96897e-12
-1.07718e-12
-6.67832e-12
-3.19578e-12
-6.20241e-12
-5.21102e-12
-5.55454e-12
-7.10292e-12
-4.74956e-12
-8.78534e-12
-3.80361e-12
-1.02263e-11
-2.74748e-12
-1.14959e-11
-1.55889e-12
-1.21566e-11
-3.41279e-13
-1.35958e-11
1.21127e-12
-1.24555e-11
2.79557e-12
-1.79701e-11
6.07245e-12
-1.28092e-11
1.00936e-11
-3.98728e-11
1.82175e-11
-3.19018e-11
-1.04908e-10
2.67998e-11
-6.48352e-12
-1.17832e-12
-6.18757e-12
-3.49173e-12
-5.70286e-12
-5.69573e-12
-5.04244e-12
-7.76334e-12
-4.22059e-12
-9.60718e-12
-3.2529e-12
-1.1194e-11
-2.1668e-12
-1.2582e-11
-9.37964e-13
-1.33855e-11
3.55078e-13
-1.48889e-11
2.03969e-12
-1.41401e-11
3.92234e-12
-1.98528e-11
7.6537e-12
-1.65406e-11
1.23053e-11
-4.45243e-11
2.08513e-11
-4.04479e-11
-1.13537e-10
2.94803e-11
-5.85567e-12
-1.28104e-12
-5.55539e-12
-3.792e-12
-5.06341e-12
-6.18771e-12
-4.3923e-12
-8.43444e-12
-3.5554e-12
-1.04441e-11
-2.56697e-12
-1.21824e-11
-1.44968e-12
-1.36993e-11
-1.73616e-13
-1.46615e-11
1.21271e-12
-1.62752e-11
3.06428e-12
-1.59917e-11
5.28908e-12
-2.20776e-11
9.49789e-12
-2.07494e-11
1.47424e-11
-4.97688e-11
2.3624e-11
-4.93295e-11
-1.22169e-10
3.22554e-11
-5.07637e-12
-1.38508e-12
-4.77255e-12
-4.09582e-12
-4.27448e-12
-6.68578e-12
-3.59392e-12
-9.11499e-12
-2.74284e-12
-1.12952e-11
-1.73315e-12
-1.31921e-11
-5.81032e-13
-1.48514e-11
7.52796e-13
-1.59954e-11
2.25426e-12
-1.77767e-11
4.30881e-12
-1.80462e-11
6.91217e-12
-2.4681e-11
1.16056e-11
-2.54429e-11
1.73918e-11
-5.5555e-11
2.65255e-11
-5.84632e-11
-1.30761e-10
3.51182e-11
-4.13637e-12
-1.49026e-12
-3.82954e-12
-4.40265e-12
-3.32607e-12
-7.18925e-12
-2.6366e-12
-9.80446e-12
-1.77109e-12
-1.21607e-11
-7.37915e-13
-1.42253e-11
4.55245e-13
-1.60446e-11
1.86074e-12
-1.74009e-11
3.50185e-12
-1.94178e-11
5.79395e-12
-2.03383e-11
8.80266e-12
-2.76897e-11
1.39728e-11
-3.0613e-11
2.02393e-11
-6.18215e-11
2.95462e-11
-6.77701e-11
-1.39277e-10
3.80622e-11
-3.0262e-12
-1.59648e-12
-2.71659e-12
-4.71227e-12
-2.20791e-12
-7.69792e-12
-1.50923e-12
-1.05031e-11
-6.27806e-13
-1.30421e-11
4.32903e-13
-1.5286e-11
1.67581e-12
-1.72875e-11
3.16955e-12
-1.88946e-11
4.97596e-12
-2.12242e-11
7.53641e-12
-2.28988e-11
1.09662e-11
-3.11195e-11
1.6591e-11
-3.62377e-11
2.32698e-11
-6.85004e-11
3.26767e-11
-7.7177e-11
-1.47682e-10
4.10814e-11
-1.73626e-12
-1.70375e-12
-1.42378e-12
-5.02475e-12
-9.09495e-13
-8.2122e-12
-2.00419e-13
-1.12122e-11
6.99733e-13
-1.39422e-11
1.79382e-12
-1.63801e-11
3.09737e-12
-1.8591e-11
4.69774e-12
-2.0495e-11
6.6946e-12
-2.32211e-11
9.54851e-12
-2.57527e-11
1.34036e-11
-3.49746e-11
1.94489e-11
-4.2283e-11
2.64685e-11
-7.552e-11
3.59085e-11
-8.66171e-11
-1.55944e-10
4.41706e-11
-2.56912e-13
-1.81222e-12
5.88711e-14
-5.34053e-12
5.79774e-13
-8.73311e-12
1.30137e-12
-1.19338e-11
2.22436e-12
-1.48652e-11
3.35933e-12
-1.7515e-11
4.73615e-12
-1.99679e-11
6.46231e-12
-2.22211e-11
8.67263e-12
-2.54314e-11
1.18379e-11
-2.8918e-11
1.61109e-11
-3.92475e-11
2.25328e-11
-4.87049e-11
2.98207e-11
-8.28078e-11
3.92337e-11
-9.60301e-11
-1.64035e-10
4.73247e-11
1.42145e-12
-1.9221e-12
1.74132e-12
-5.6604e-12
2.27048e-12
-9.26226e-12
3.00762e-12
-1.2671e-11
3.95877e-12
-1.58164e-11
5.14354e-12
-1.86998e-11
6.60736e-12
-2.14317e-11
8.47813e-12
-2.40919e-11
1.09214e-11
-2.78746e-11
1.44078e-11
-3.24045e-11
1.90804e-11
-4.39201e-11
2.58278e-11
-5.54524e-11
3.33127e-11
-9.02928e-11
4.2645e-11
-1.05362e-10
-1.7193e-10
5.05396e-11
3.30827e-12
-2.03377e-12
3.63337e-12
-5.9855e-12
4.17301e-12
-9.8019e-12
4.9296e-12
-1.34275e-11
5.91528e-12
-1.68021e-11
7.15975e-12
-1.99443e-11
8.72467e-12
-2.29966e-11
1.07574e-11
-2.61247e-11
1.34482e-11
-3.05654e-11
1.7257e-11
-3.62133e-11
2.23014e-11
-4.89644e-11
2.9318e-11
-6.2469e-11
3.69319e-11
-9.79067e-11
4.61361e-11
-1.14566e-10
-1.79605e-10
5.38114e-11
5.41276e-12
-2.14768e-12
5.74456e-12
-6.3173e-12
6.29747e-12
-1.03548e-11
7.0781e-12
-1.42082e-11
8.10547e-12
-1.78294e-11
9.4201e-12
-2.12589e-11
1.10999e-11
-2.46764e-11
1.33095e-11
-2.83343e-11
1.62569e-11
-3.35128e-11
2.03807e-11
-4.0337e-11
2.57608e-11
-5.43446e-11
3.29878e-11
-6.96959e-11
4.06667e-11
-1.05586e-10
4.97014e-11
-1.23601e-10
-1.8704e-10
5.71366e-11
7.74377e-12
-2.26439e-12
8.08402e-12
-6.65756e-12
8.65343e-12
-1.09242e-11
9.46328e-12
-1.5018e-11
1.054e-11
-1.89062e-11
1.19353e-11
-2.26542e-11
1.37424e-11
-2.64835e-11
1.61405e-11
-3.07324e-11
1.93473e-11
-3.67196e-11
2.37706e-11
-4.47604e-11
2.94443e-11
-6.00183e-11
3.68219e-11
-7.70735e-11
4.45069e-11
-1.13271e-10
5.3336e-11
-1.3243e-10
-1.94216e-10
6.05123e-11
1.03097e-11
-2.38453e-12
1.06604e-11
-7.00825e-12
1.12499e-11
-1.15137e-11
1.20944e-11
-1.58626e-11
1.32283e-11
-2.004e-11
1.47142e-11
-2.41401e-11
1.66594e-11
-2.84287e-11
1.92533e-11
-3.33263e-11
2.27161e-11
-4.01824e-11
2.74163e-11
-4.94606e-11
3.33365e-11
-6.59385e-11
4.08059e-11
-8.45429e-11
4.84435e-11
-1.20908e-10
5.70356e-11
-1.41022e-10
-2.01117e-10
6.39358e-11
1.31183e-11
-2.50879e-12
1.34815e-11
-7.37151e-12
1.40949e-11
-1.21271e-11
1.49798e-11
-1.67475e-11
1.61784e-11
-2.12386e-11
1.77638e-11
-2.57255e-11
1.98551e-11
-3.05201e-11
2.26479e-11
-3.61191e-11
2.63568e-11
-4.38913e-11
3.13051e-11
-5.44089e-11
3.7422e-11
-7.20554e-11
4.49266e-11
-9.20475e-11
5.24686e-11
-1.2845e-10
6.07964e-11
-1.4935e-10
-2.07725e-10
6.74046e-11
1.61766e-11
-2.63787e-12
1.65547e-11
-7.74957e-12
1.71957e-11
-1.27681e-11
1.81265e-11
-1.76783e-11
1.93966e-11
-2.25087e-11
2.10889e-11
-2.74177e-11
2.33316e-11
-3.27628e-11
2.63215e-11
-3.91089e-11
3.02609e-11
-4.78308e-11
3.54232e-11
-5.95712e-11
4.16856e-11
-7.83178e-11
4.91721e-11
-9.9534e-11
5.65755e-11
-1.35854e-10
6.4615e-11
-1.5739e-10
-2.14026e-10
7.09164e-11
1.94911e-11
-2.7725e-12
1.98861e-11
-8.1446e-12
2.05585e-11
-1.34404e-11
2.15402e-11
-1.866e-11
2.28879e-11
-2.38564e-11
2.46923e-11
-2.92222e-11
2.70882e-11
-3.51587e-11
3.02686e-11
-4.22892e-11
3.44177e-11
-5.19799e-11
3.97564e-11
-6.49099e-11
4.61128e-11
-8.46742e-11
5.35315e-11
-1.06953e-10
6.07584e-11
-1.43081e-10
6.84884e-11
-1.6512e-10
-2.20007e-10
7.4469e-11
2.30671e-11
-2.91334e-12
2.34811e-11
-8.55866e-12
2.41882e-11
-1.41476e-11
2.52252e-11
-1.9697e-11
2.6655e-11
-2.52862e-11
2.85748e-11
-3.11419e-11
3.1122e-11
-3.7706e-11
3.44817e-11
-4.56489e-11
3.8815e-11
-5.63133e-11
4.42898e-11
-7.03847e-11
5.06901e-11
-9.10744e-11
5.79954e-11
-1.14258e-10
6.50122e-11
-1.50097e-10
7.24137e-11
-1.72521e-10
-2.25654e-10
7.80605e-11
2.6909e-11
-3.061e-12
2.7344e-11
-8.99361e-12
2.80887e-11
-1.48923e-11
2.91844e-11
-2.07928e-11
3.06993e-11
-2.68011e-11
3.27348e-11
-3.31774e-11
3.5428e-11
-4.03992e-11
3.89516e-11
-4.91725e-11
4.34401e-11
-6.08018e-11
4.90093e-11
-7.59539e-11
5.54051e-11
-9.74702e-11
6.25556e-11
-1.21409e-10
6.93324e-11
-1.56874e-10
7.63884e-11
-1.79577e-10
-2.30954e-10
8.16887e-11
3.10204e-11
-3.21597e-12
3.14778e-11
-9.45094e-12
3.22623e-11
-1.56768e-11
3.34192e-11
-2.19496e-11
3.50203e-11
-2.84023e-11
3.71691e-11
-3.53262e-11
3.99994e-11
-4.32295e-11
4.36678e-11
-5.28409e-11
4.82796e-11
-6.54135e-11
5.39009e-11
-8.15752e-11
6.02464e-11
-1.03816e-10
6.72048e-11
-1.28367e-10
7.37152e-11
-1.63385e-10
8.04099e-11
-1.86272e-10
-2.35896e-10
8.53518e-11
3.54037e-11
-3.37864e-12
3.58845e-11
-9.93175e-12
3.67104e-11
-1.65027e-11
3.79293e-11
-2.31684e-11
3.96157e-11
-3.00887e-11
4.1873e-11
-3.75835e-11
4.48281e-11
-4.61846e-11
4.86188e-11
-5.66316e-11
5.33199e-11
-7.01146e-11
5.89516e-11
-8.7207e-11
6.52038e-11
-1.10068e-10
7.19366e-11
-1.351e-10
7.81569e-11
-1.69605e-10
8.44758e-11
-1.92591e-10
-2.40468e-10
8.90479e-11
4.006e-11
-3.54922e-12
4.0565e-11
-1.04367e-11
4.14327e-11
-1.73705e-11
4.27132e-11
-2.44489e-11
4.4482e-11
-3.18575e-11
4.68399e-11
-3.99414e-11
4.99044e-11
-4.92491e-11
5.37924e-11
-6.05196e-11
5.85478e-11
-7.487e-11
6.41492e-11
-9.28083e-11
7.02683e-11
-1.16187e-10
7.67453e-11
-1.41577e-10
8.26542e-11
-1.75514e-10
8.85836e-11
-1.9852e-10
-2.44659e-10
9.27749e-11
4.49897e-11
-3.72772e-12
4.55188e-11
-1.09657e-11
4.64279e-11
-1.82796e-11
4.7768e-11
-2.57891e-11
4.96141e-11
-3.37036e-11
5.20623e-11
-4.23896e-11
5.52183e-11
-5.24051e-11
5.91763e-11
-6.44777e-11
6.39505e-11
-7.96442e-11
6.94822e-11
-9.83401e-11
7.54316e-11
-1.22136e-10
8.16258e-11
-1.47771e-10
8.72038e-11
-1.81092e-10
9.2731e-11
-2.04047e-10
-2.48459e-10
9.6531e-11
5.01919e-11
-3.91398e-12
5.07445e-11
-1.15183e-11
5.16934e-11
-1.92285e-11
5.30896e-11
-2.71853e-11
5.50058e-11
-3.56198e-11
5.75315e-11
-4.49152e-11
6.07586e-11
-5.56322e-11
6.47582e-11
-6.84772e-11
6.95156e-11
-8.44016e-11
7.49404e-11
-1.03765e-10
8.06863e-11
-1.27882e-10
8.65734e-11
-1.53658e-10
9.18027e-11
-1.86321e-10
9.69156e-11
-2.0916e-10
-2.51858e-10
1.00314e-10
5.56644e-11
-4.10761e-12
5.62394e-11
-1.20933e-11
5.72255e-11
-2.02147e-11
5.86727e-11
-2.86324e-11
6.06498e-11
-3.7597e-11
6.32381e-11
-4.75035e-11
6.65142e-11
-5.89084e-11
7.05258e-11
-7.24888e-11
7.52316e-11
-8.91074e-11
8.05143e-11
-1.09048e-10
8.60258e-11
-1.33394e-10
9.15839e-11
-1.59216e-10
9.6448e-11
-1.91185e-10
1.01135e-10
-2.13847e-10
-2.54846e-10
1.04123e-10
6.14044e-11
-4.30801e-12
6.19999e-11
-1.26887e-11
6.30195e-11
-2.12343e-11
6.45109e-11
-3.01238e-11
6.6538e-11
-3.96241e-11
6.91721e-11
-5.01376e-11
7.24736e-11
-6.22099e-11
7.64672e-11
-7.64824e-11
8.10876e-11
-9.37278e-11
8.6195e-11
-1.14155e-10
9.14441e-11
-1.38643e-10
9.66532e-11
-1.64425e-10
1.01137e-10
-1.95669e-10
1.05387e-10
-2.18098e-10
-2.57414e-10
1.07955e-10
6.74079e-11
-4.51433e-12
6.80213e-11
-1.33021e-11
6.90695e-11
-2.22825e-11
7.0597e-11
-3.16513e-11
7.26615e-11
-4.16886e-11
7.5323e-11
-5.27991e-11
7.86254e-11
-6.55123e-11
8.2571e-11
-8.04281e-11
8.70733e-11
-9.82301e-11
9.19747e-11
-1.19056e-10
9.69355e-11
-1.43604e-10
1.01777e-10
-1.69267e-10
1.05866e-10
-1.99757e-10
1.09669e-10
-2.21901e-10
-2.59554e-10
1.11809e-10
7.36699e-11
-4.72555e-12
7.42981e-11
-1.39303e-11
7.53691e-11
-2.33534e-11
7.69233e-11
-3.32056e-11
7.9011e-11
-4.37762e-11
8.16803e-11
-5.54684e-11
8.49582e-11
-6.87902e-11
8.88263e-11
-8.42962e-11
9.31793e-11
-1.02583e-10
9.78459e-11
-1.23723e-10
1.02495e-10
-1.48253e-10
1.06953e-10
-1.73725e-10
1.10633e-10
-2.03437e-10
1.13979e-10
-2.25248e-10
-2.61258e-10
1.15683e-10
8.01848e-11
-4.9404e-12
8.0824e-11
-1.45695e-11
8.19109e-11
-2.44403e-11
8.34811e-11
-3.47758e-11
8.55767e-11
-4.58718e-11
8.82333e-11
-5.8125e-11
9.14611e-11
-7.2018e-11
9.52226e-11
-8.80577e-11
9.93966e-11
-1.06757e-10
1.03802e-10
-1.28128e-10
1.08117e-10
-1.52568e-10
1.12176e-10
-1.77783e-10
1.15434e-10
-2.06696e-10
1.18315e-10
-2.28129e-10
-2.62519e-10
1.19576e-10
8.69459e-11
-5.15744e-12
8.75918e-11
-1.52153e-11
8.86869e-11
-2.55355e-11
9.02615e-11
-3.63504e-11
9.23486e-11
-4.79589e-11
9.49712e-11
-6.07476e-11
9.81234e-11
-7.51702e-11
1.0175e-10
-9.16845e-11
1.05717e-10
-1.10724e-10
1.09836e-10
-1.32247e-10
1.13798e-10
-1.56531e-10
1.17443e-10
-1.81427e-10
1.20268e-10
-2.09521e-10
1.22675e-10
-2.30536e-10
-2.63329e-10
1.23486e-10
9.39462e-11
-5.37503e-12
9.45939e-11
-1.5863e-11
9.56888e-11
-2.66304e-11
9.72551e-11
-3.79167e-11
9.93166e-11
-5.00204e-11
1.01884e-10
-6.33146e-11
1.04935e-10
-7.82213e-11
1.084e-10
-9.51493e-11
1.12133e-10
-1.14457e-10
1.15943e-10
-1.36058e-10
1.19534e-10
-1.60121e-10
1.22751e-10
-1.84644e-10
1.25131e-10
-2.11901e-10
1.27057e-10
-2.32462e-10
-2.63683e-10
1.2741e-10
1.01178e-10
-5.59142e-12
1.01822e-10
-1.65072e-11
1.02908e-10
-2.7716e-11
1.04452e-10
-3.94615e-11
1.06471e-10
-5.20387e-11
1.0896e-10
-6.5804e-11
1.11885e-10
-8.11466e-11
1.15162e-10
-9.84261e-11
1.18637e-10
-1.17933e-10
1.22117e-10
-1.39538e-10
1.25319e-10
-1.63322e-10
1.28096e-10
-1.87421e-10
1.30022e-10
-2.13827e-10
1.31458e-10
-2.33898e-10
-2.63574e-10
1.31349e-10
1.08633e-10
-5.80466e-12
1.09268e-10
-1.71422e-11
1.10334e-10
-2.87826e-11
1.11844e-10
-4.09709e-11
1.13801e-10
-5.39956e-11
1.16191e-10
-6.81943e-11
1.18966e-10
-8.39216e-11
1.2203e-10
-1.0149e-10
1.25223e-10
-1.21126e-10
1.28353e-10
-1.42667e-10
1.3115e-10
-1.66119e-10
1.33476e-10
-1.89747e-10
1.34937e-10
-2.15288e-10
1.35878e-10
-2.34839e-10
-2.62997e-10
1.35301e-10
1.16302e-10
-6.01276e-12
1.16922e-10
-1.77621e-11
1.17959e-10
-2.98201e-11
1.19419e-10
-4.24307e-11
1.21296e-10
-5.58731e-11
1.23566e-10
-7.04638e-11
1.26167e-10
-8.65228e-11
1.28994e-10
-1.04317e-10
1.31884e-10
-1.24016e-10
1.34646e-10
-1.45429e-10
1.37024e-10
-1.68497e-10
1.38887e-10
-1.91611e-10
1.39874e-10
-2.16275e-10
1.40314e-10
-2.35279e-10
-2.61947e-10
1.39264e-10
1.24177e-10
-6.21359e-12
1.24775e-10
-1.83606e-11
1.25773e-10
-3.08182e-11
1.27169e-10
-4.38263e-11
1.28949e-10
-5.76527e-11
1.31076e-10
-7.25913e-11
1.33481e-10
-8.89274e-11
1.36049e-10
-1.06885e-10
1.38615e-10
-1.26583e-10
1.40991e-10
-1.47805e-10
1.42936e-10
-1.70442e-10
1.44327e-10
-1.93002e-10
1.44832e-10
-2.16779e-10
1.44764e-10
-2.35211e-10
-2.6042e-10
1.43237e-10
1.32248e-10
-6.40499e-12
1.32818e-10
-1.89314e-11
1.33766e-10
-3.17663e-11
1.35083e-10
-4.51434e-11
1.36747e-10
-5.93166e-11
1.38712e-10
-7.45563e-11
1.40899e-10
-9.11137e-11
1.43186e-10
-1.09173e-10
1.45409e-10
-1.28806e-10
1.47384e-10
-1.49781e-10
1.48884e-10
-1.71941e-10
1.49794e-10
-1.93912e-10
1.49808e-10
-2.16793e-10
1.49228e-10
-2.34632e-10
-2.58411e-10
1.47219e-10
1.40506e-10
-6.58475e-12
1.41042e-10
-1.94679e-11
1.4193e-10
-3.26537e-11
1.43153e-10
-4.63672e-11
1.44684e-10
-6.08468e-11
1.46466e-10
-7.63386e-11
1.48413e-10
-9.30608e-11
1.504e-10
-1.1116e-10
1.52262e-10
-1.30668e-10
1.53822e-10
-1.5134e-10
1.54864e-10
-1.72983e-10
1.55283e-10
-1.94332e-10
1.548e-10
-2.1631e-10
1.53704e-10
-2.33536e-10
-2.55916e-10
1.51209e-10
1.48942e-10
-6.75064e-12
1.49437e-10
-1.99635e-11
1.50253e-10
-3.34697e-11
1.5137e-10
-4.74834e-11
1.52749e-10
-6.22261e-11
1.54329e-10
-7.7919e-11
1.56017e-10
-9.47487e-11
1.57685e-10
-1.12827e-10
1.59169e-10
-1.32152e-10
1.60299e-10
-1.52469e-10
1.60873e-10
-1.73557e-10
1.60794e-10
-1.94253e-10
1.59806e-10
-2.15322e-10
1.5819e-10
-2.31919e-10
-2.52933e-10
1.55207e-10
1.57546e-10
-6.90045e-12
1.57994e-10
-2.04119e-11
1.58728e-10
-3.42038e-11
1.59723e-10
-4.84778e-11
1.60934e-10
-6.34373e-11
1.62294e-10
-7.92788e-11
1.63704e-10
-9.61586e-11
1.65034e-10
-1.14158e-10
1.66125e-10
-1.33244e-10
1.66813e-10
-1.53157e-10
1.66908e-10
-1.73653e-10
1.66324e-10
-1.93668e-10
1.64826e-10
-2.13825e-10
1.62685e-10
-2.29778e-10
-2.49457e-10
1.5921e-10
1.6631e-10
-7.03197e-12
1.66704e-10
-2.08063e-11
1.67346e-10
-3.48455e-11
1.68204e-10
-4.93366e-11
1.69231e-10
-6.44641e-11
1.70353e-10
-8.04001e-11
1.71467e-10
-9.72725e-11
1.72443e-10
-1.15134e-10
1.73126e-10
-1.33927e-10
1.73359e-10
-1.53389e-10
1.72967e-10
-1.73261e-10
1.7187e-10
-1.92571e-10
1.69857e-10
-2.11811e-10
1.67188e-10
-2.2711e-10
-2.45487e-10
1.63218e-10
1.75223e-10
-7.14303e-12
1.75558e-10
-2.11406e-11
1.76097e-10
-3.53845e-11
1.76806e-10
-5.00462e-11
1.77633e-10
-6.52907e-11
1.78499e-10
-8.12659e-11
1.793e-10
-9.80733e-11
1.79906e-10
-1.15741e-10
1.80168e-10
-1.34189e-10
1.79936e-10
-1.53157e-10
1.79047e-10
-1.72373e-10
1.77431e-10
-1.90954e-10
1.74897e-10
-2.09277e-10
1.71699e-10
-2.23911e-10
-2.4102e-10
1.67231e-10
1.84279e-10
-7.23153e-12
1.84547e-10
-2.14085e-11
1.84973e-10
-3.58109e-11
1.85521e-10
-5.05937e-11
1.86132e-10
-6.59018e-11
1.86726e-10
-8.186e-11
1.87197e-10
-9.8545e-11
1.87419e-10
-1.15963e-10
1.87247e-10
-1.34016e-10
1.86539e-10
-1.52449e-10
1.85146e-10
-1.70981e-10
1.83005e-10
-1.88813e-10
1.79946e-10
-2.06218e-10
1.76214e-10
-2.2018e-10
-2.36053e-10
1.71247e-10
1.93467e-10
-7.29541e-12
1.93663e-10
-2.16039e-11
1.93967e-10
-3.61151e-11
1.94339e-10
-5.09664e-11
1.9472e-10
-6.62829e-11
1.95027e-10
-8.21668e-11
1.95155e-10
-9.86724e-11
1.94978e-10
-1.15786e-10
1.94359e-10
-1.33398e-10
1.93166e-10
-1.51255e-10
1.91262e-10
-1.69076e-10
1.8859e-10
-1.86142e-10
1.85002e-10
-2.0263e-10
1.80734e-10
-2.15912e-10
-2.30585e-10
1.75266e-10
2.02781e-10
-7.33269e-12
2.02898e-10
-2.17208e-11
2.0307e-10
-3.62875e-11
2.03256e-10
-5.11522e-11
2.03393e-10
-6.64198e-11
2.03398e-10
-8.21716e-11
2.03166e-10
-9.8441e-11
2.02578e-10
-1.15198e-10
2.01502e-10
-1.32321e-10
1.99814e-10
-1.49568e-10
1.97391e-10
-1.66653e-10
1.94185e-10
-1.82936e-10
1.90063e-10
-1.98508e-10
1.85258e-10
-2.11107e-10
-2.24614e-10
1.79286e-10
2.12212e-10
-7.34145e-12
2.12244e-10
-2.17537e-11
2.12276e-10
-3.63193e-11
2.12263e-10
-5.11393e-11
2.12143e-10
-6.62993e-11
2.11832e-10
-8.18603e-11
2.11228e-10
-9.78372e-11
2.10216e-10
-1.14186e-10
2.08671e-10
-1.30777e-10
2.06481e-10
-1.47377e-10
2.03532e-10
-1.63704e-10
1.99786e-10
-1.7919e-10
1.95128e-10
-1.9385e-10
1.89784e-10
-2.05763e-10
-2.18137e-10
1.83308e-10
2.21753e-10
-7.31985e-12
2.21696e-10
-2.1697e-11
2.21579e-10
-3.62017e-11
2.21356e-10
-5.09167e-11
2.20965e-10
-6.59085e-11
2.20324e-10
-8.12196e-11
2.19335e-10
-9.6848e-11
2.17887e-10
-1.12738e-10
2.15865e-10
-1.28755e-10
2.13164e-10
-1.44676e-10
2.09684e-10
-1.60224e-10
2.05394e-10
-1.749e-10
2.00196e-10
-1.88652e-10
1.9431e-10
-1.99877e-10
-2.11155e-10
1.87328e-10
2.31398e-10
-7.26615e-12
2.31246e-10
-2.15455e-11
2.30971e-10
-3.59264e-11
2.30528e-10
-5.04735e-11
2.29854e-10
-6.52353e-11
2.28872e-10
-8.02367e-11
2.27485e-10
-9.54611e-11
2.2559e-10
-1.10843e-10
2.2308e-10
-1.26245e-10
2.1986e-10
-1.41456e-10
2.15843e-10
-1.56207e-10
2.11006e-10
-1.70062e-10
2.05265e-10
-1.82911e-10
1.98837e-10
-1.93449e-10
-2.03667e-10
1.91348e-10
2.4114e-10
-7.17865e-12
2.40889e-10
-2.1294e-11
2.40448e-10
-3.54853e-11
2.39774e-10
-4.97994e-11
2.38806e-10
-6.42678e-11
2.37469e-10
-7.88993e-11
2.35672e-10
-9.36645e-11
2.3332e-10
-1.08491e-10
2.30313e-10
-1.23239e-10
2.26568e-10
-1.37711e-10
2.22009e-10
-1.51648e-10
2.16619e-10
-1.64673e-10
2.10334e-10
-1.76626e-10
2.03361e-10
-1.86476e-10
-1.95671e-10
1.95365e-10
2.50975e-10
-7.05576e-12
2.50619e-10
-2.09377e-11
2.50004e-10
-3.48706e-11
2.4909e-10
-4.88845e-11
2.47816e-10
-6.29947e-11
2.46113e-10
-7.71957e-11
2.43895e-10
-9.1447e-11
2.41075e-10
-1.0567e-10
2.37563e-10
-1.19727e-10
2.33286e-10
-1.33434e-10
2.28178e-10
-1.4654e-10
2.22234e-10
-1.58728e-10
2.15401e-10
-1.69793e-10
2.07883e-10
-1.78958e-10
-1.87167e-10
1.99379e-10
2.60898e-10
-6.89592e-12
2.60432e-10
-2.04719e-11
2.59637e-10
-3.40749e-11
2.58471e-10
-4.77191e-11
2.56882e-10
-6.14051e-11
2.548e-10
-7.51144e-11
2.52151e-10
-8.87973e-11
2.48852e-10
-1.02372e-10
2.44826e-10
-1.15702e-10
2.4001e-10
-1.28617e-10
2.34349e-10
-1.40879e-10
2.27846e-10
-1.52225e-10
2.20464e-10
-1.62411e-10
2.124e-10
-1.70894e-10
-1.78156e-10
2.03389e-10
2.70905e-10
-6.69766e-12
2.70325e-10
-1.9892e-11
2.69341e-10
-3.30909e-11
2.67915e-10
-4.62939e-11
2.65999e-10
-5.94883e-11
2.63529e-10
-7.26444e-11
2.60436e-10
-8.57048e-11
2.5665e-10
-9.85854e-11
2.52102e-10
-1.11153e-10
2.46738e-10
-1.23254e-10
2.4052e-10
-1.34661e-10
2.33455e-10
-1.4516e-10
2.25521e-10
-1.54478e-10
2.1691e-10
-1.62283e-10
-1.68638e-10
2.07392e-10
2.80992e-10
-6.45956e-12
2.80293e-10
-1.91935e-11
2.79114e-10
-3.19115e-11
2.7742e-10
-4.45999e-11
2.75165e-10
-5.7234e-11
2.72296e-10
-6.97746e-11
2.68749e-10
-8.21587e-11
2.64465e-10
-9.43012e-11
2.59386e-10
-1.06074e-10
2.5347e-10
-1.17338e-10
2.46688e-10
-1.27879e-10
2.39058e-10
-1.3753e-10
2.30571e-10
-1.45991e-10
2.21412e-10
-1.53123e-10
-1.58615e-10
2.11388e-10
2.91157e-10
-6.18022e-12
2.90336e-10
-1.83721e-11
2.88954e-10
-3.05298e-11
2.86982e-10
-4.2628e-11
2.8438e-10
-5.46318e-11
2.81099e-10
-6.64943e-11
2.77089e-10
-7.81483e-11
2.72297e-10
-8.95093e-11
2.66678e-10
-1.00456e-10
2.60202e-10
-1.10862e-10
2.52851e-10
-1.20528e-10
2.44652e-10
-1.2933e-10
2.3561e-10
-1.36949e-10
2.25902e-10
-1.43416e-10
-1.48087e-10
2.15374e-10
3.01399e-10
-5.85829e-12
3.00451e-10
-1.74235e-11
2.9886e-10
-2.8939e-11
2.96601e-10
-4.03694e-11
2.93641e-10
-5.16716e-11
2.89939e-10
-6.27926e-11
2.85454e-10
-7.36628e-11
2.80144e-10
-8.41996e-11
2.73977e-10
-9.42883e-11
2.66933e-10
-1.03818e-10
2.59008e-10
-1.12603e-10
2.50236e-10
-1.20558e-10
2.40637e-10
-1.2735e-10
2.3038e-10
-1.33159e-10
-1.37057e-10
2.1935e-10
3.11718e-10
-5.49245e-12
3.10638e-10
-1.63436e-11
3.08831e-10
-2.71323e-11
3.06277e-10
-3.78153e-11
3.02948e-10
-4.8343e-11
2.98814e-10
-5.86586e-11
2.93843e-10
-6.86912e-11
2.88005e-10
-7.83617e-11
2.8128e-10
-8.7563e-11
2.7366e-10
-9.61985e-11
2.65155e-10
-1.04097e-10
2.55806e-10
-1.11209e-10
2.45647e-10
-1.17192e-10
2.3484e-10
-1.22352e-10
-1.25529e-10
2.23312e-10
3.22113e-10
-5.08138e-12
3.20898e-10
-1.51281e-11
3.18868e-10
-2.51029e-11
3.1601e-10
-3.49567e-11
3.12303e-10
-4.46358e-11
3.07725e-10
-5.40809e-11
3.02256e-10
-6.32222e-11
2.95879e-10
-7.19847e-11
2.88586e-10
-8.02699e-11
2.80383e-10
-8.79954e-11
2.7129e-10
-9.50047e-11
2.61359e-10
-1.01278e-10
2.50639e-10
-1.06471e-10
2.39282e-10
-1.10994e-10
-1.13505e-10
2.27258e-10
3.32588e-10
-4.62376e-12
3.31232e-10
-1.37728e-11
3.28973e-10
-2.28439e-11
3.25801e-10
-3.17848e-11
3.21705e-10
-4.05393e-11
3.16672e-10
-4.90482e-11
3.10694e-10
-5.72439e-11
3.03766e-10
-6.50571e-11
2.95895e-10
-7.23983e-11
2.87098e-10
-7.9199e-11
2.77411e-10
-8.53172e-11
2.66893e-10
-9.07606e-11
2.55609e-10
-9.51867e-11
2.437e-10
-9.90855e-11
-1.0099e-10
2.31185e-10
3.43143e-10
-4.11824e-12
3.41644e-10
-1.22734e-11
3.39148e-10
-2.03485e-11
3.35654e-10
-2.82902e-11
3.31157e-10
-3.60427e-11
3.25657e-10
-4.35484e-11
3.19157e-10
-5.07439e-11
3.11667e-10
-5.75667e-11
3.03205e-10
-6.39368e-11
2.93806e-10
-6.97994e-11
2.83515e-10
-7.50266e-11
2.72405e-10
-7.96501e-11
2.60552e-10
-8.33339e-11
2.4809e-10
-8.66236e-11
-8.79904e-11
2.3509e-10
3.53784e-10
-3.56347e-12
3.52136e-10
-1.06255e-11
3.49397e-10
-1.76096e-11
3.4557e-10
-2.44637e-11
3.40662e-10
-3.11349e-11
3.34683e-10
-3.75693e-11
3.27649e-10
-4.37093e-11
3.19582e-10
-4.95004e-11
3.10518e-10
-5.48729e-11
3.00504e-10
-5.97852e-11
2.89601e-10
-6.41234e-11
2.7789e-10
-6.79393e-11
2.65465e-10
-7.09086e-11
2.52448e-10
-7.36062e-11
-7.45109e-11
2.38968e-10
3.64514e-10
-2.95806e-12
3.62714e-10
-8.82486e-12
3.59724e-10
-1.46199e-11
3.55556e-10
-2.02956e-11
3.50225e-10
-2.5804e-11
3.43753e-10
-3.10976e-11
3.3617e-10
-3.61262e-11
3.27514e-10
-4.08443e-11
3.17834e-10
-4.51931e-11
3.07193e-10
-4.91439e-11
2.95667e-10
-5.25971e-11
2.83347e-10
-5.56195e-11
2.70344e-10
-5.79061e-11
2.56767e-10
-6.00294e-11
-6.05578e-11
2.42814e-10
3.75342e-10
-2.30054e-12
3.73384e-10
-6.86676e-12
3.70136e-10
-1.13719e-11
3.65616e-10
-1.57758e-11
3.5985e-10
-2.00381e-11
3.52872e-10
-2.41197e-11
3.44726e-10
-2.79798e-11
3.35465e-10
-3.15831e-11
3.25154e-10
-3.48826e-11
3.13872e-10
-3.78615e-11
3.0171e-10
-4.04355e-11
2.88771e-10
-4.26801e-11
2.75185e-10
-4.43208e-11
2.61043e-10
-4.58875e-11
-4.61361e-11
2.46622e-10
3.86274e-10
-1.58943e-12
3.84153e-10
-4.74652e-12
3.80639e-10
-7.85798e-12
3.75758e-10
-1.08938e-11
3.69544e-10
-1.38244e-11
3.62045e-10
-1.66211e-11
3.5332e-10
-1.92546e-11
3.43438e-10
-2.17006e-11
3.3248e-10
-2.39255e-11
3.20541e-10
-2.59222e-11
3.07731e-10
-2.76255e-11
2.94159e-10
-2.91079e-11
2.79985e-10