/*--------------------------------*- C++ -*----------------------------------*\
| =========                 |                                                 |
| \\      /  F ield         | OpenFOAM: The Open Source CFD Toolbox           |
|  \\    /   O peration     | Version:  5.x                                   |
|   \\  /    A nd           | Web:      www.OpenFOAM.org                      |
|    \\/     M anipulation  |                                                 |
\*---------------------------------------------------------------------------*/
FoamFile
{
    version     2.0;
    format      ascii;
    class       volVectorField;
    location    "0.02";
    object      U;
}
// * * * * * * * * * * * * * * * * * * * * * * * * * * * * * * * * * * * * * //

dimensions      [0 1 -1 0 0 0 0];

internalField   nonuniform List<vector> 
7200
(
(-0.000929249 -4.8472e-05 0)
(-0.000927563 -0.000142336 5.48643e-23)
(-0.000863791 -0.000230333 -3.05112e-22)
(-0.000899711 -0.000328288 0)
(-0.000676563 -0.000360477 -7.14906e-22)
(-0.000953291 -0.000545573 2.14401e-22)
(-0.000199227 -0.000298012 -3.11965e-21)
(-0.00139116 -0.00101506 3.04623e-23)
(0.000993643 0.00040684 -7.99105e-21)
(-0.00279516 -0.0023773 0)
(0.00332646 0.0024881 -1.20715e-22)
(-0.00467668 -0.00445407 1.70615e-20)
(0.00394584 0.00293577 0)
(-0.00227468 -0.000962541 -1.06594e-20)
(0.0006956 -0.000414748 -1.74152e-21)
(-0.00274245 -0.00014809 -3.63941e-25)
(-0.00272091 -0.000440233 3.59948e-25)
(-0.00256787 -0.000710251 0)
(-0.0025731 -0.00100348 -1.25608e-23)
(-0.00211595 -0.00113724 1.05012e-21)
(-0.00247777 -0.00158576 -5.35945e-22)
(-0.00114764 -0.00114097 2.05846e-23)
(-0.00290455 -0.00256833 -1.40791e-21)
(0.000928342 0.000133331 1.18103e-20)
(-0.00472767 -0.0051523 1.96295e-23)
(0.0048005 0.00433411 1.41039e-20)
(-0.0077312 -0.00985857 -2.55538e-20)
(0.00671295 0.00704373 3.10052e-20)
(-0.00393297 -0.00305816 1.66495e-20)
(0.00199461 -0.000965555 -1.24101e-21)
(-0.00447037 -0.00024601 -1.53375e-24)
(-0.00442325 -0.000732435 3.94131e-25)
(-0.00419988 -0.00118541 -8.2221e-24)
(-0.00413925 -0.00165559 7.9513e-24)
(-0.00352766 -0.00193249 0)
(-0.0038323 -0.00252646 1.09878e-21)
(-0.00219228 -0.00215705 1.01471e-23)
(-0.00408631 -0.00368125 1.39126e-21)
(0.000546701 -0.000964036 3.68833e-23)
(-0.00615898 -0.0063076 -4.69643e-21)
(0.00596511 0.00354511 -1.95962e-21)
(-0.0109093 -0.0116805 1.47792e-22)
(0.0107271 0.00857999 -3.23088e-20)
(-0.00672798 -0.00468699 0)
(0.0037628 -0.00132229 5.76818e-21)
(-0.00610565 -0.000342283 2.31378e-24)
(-0.00603004 -0.00102161 1.07719e-22)
(-0.00574659 -0.00165483 0)
(-0.00560203 -0.0022985 -6.141e-22)
(-0.00487962 -0.00272223 -8.64105e-25)
(-0.00504656 -0.00344099 -1.28724e-21)
(-0.00326436 -0.00319209 0)
(-0.00498379 -0.00469746 0)
(-0.00014125 -0.00221324 0)
(-0.00685319 -0.00706921 4.86881e-21)
(0.00607757 0.00202469 -1.28583e-20)
(-0.0124848 -0.0120162 7.0518e-23)
(0.0137361 0.00871718 1.07479e-22)
(-0.00927429 -0.00601552 -2.3541e-23)
(0.00588311 -0.00152687 -3.11298e-21)
(-0.00764085 -0.000437114 -2.08336e-24)
(-0.00753569 -0.00130658 -1.07255e-22)
(-0.00719773 -0.00211779 -2.71878e-22)
(-0.00696248 -0.00293049 1.25969e-21)
(-0.00614881 -0.00350268 -1.14998e-21)
(-0.00614848 -0.00433398 6.73633e-22)
(-0.00429054 -0.00422168 2.18339e-23)
(-0.00571864 -0.00566841 0)
(-0.000902938 -0.00348277 -2.73874e-24)
(-0.00718523 -0.00770639 2.3856e-24)
(0.00570491 0.000334816 7.21927e-23)
(-0.0129233 -0.0116668 -5.77204e-23)
(0.0157721 0.00793451 2.22321e-20)
(-0.0114124 -0.00705386 0)
(0.00840697 -0.00161468 3.04772e-21)
(-0.0090682 -0.000530269 -5.08717e-25)
(-0.00893342 -0.00158599 3.6664e-24)
(-0.00854434 -0.00257243 -1.36534e-23)
(-0.00821729 -0.00354907 -6.59975e-22)
(-0.0073212 -0.00426935 2.32765e-21)
(-0.0071471 -0.00520503 2.41108e-23)
(-0.00523559 -0.00523199 -2.24598e-23)
(-0.00634222 -0.00661122 0)
(-0.00162858 -0.00471693 0)
(-0.00733808 -0.00831733 0)
(0.00521079 -0.0012808 0)
(-0.0126814 -0.0110922 1.13856e-20)
(0.0170536 0.00656951 -2.31593e-20)
(-0.0130872 -0.00780294 5.67995e-23)
(0.0113651 -0.00161255 -6.49656e-21)
(-0.0103794 -0.000621382 0)
(-0.0102155 -0.00185859 -3.32277e-24)
(-0.00977777 -0.00301662 2.88174e-22)
(-0.00936052 -0.00415182 -7.29401e-22)
(-0.00838645 -0.00501776 2.95439e-23)
(-0.00804166 -0.00605222 0)
(-0.00608177 -0.00621351 0)
(-0.00686988 -0.00753013 0)
(-0.00227155 -0.00588978 3.95442e-21)
(-0.00737345 -0.00893527 2.23452e-21)
(0.00476085 -0.00272667 -4.73925e-23)
(-0.0120467 -0.0105664 -1.12908e-20)
(0.0177483 0.00490198 1.86148e-20)
(-0.0142189 -0.00827714 4.44504e-23)
(0.0147775 -0.00154135 1.51051e-22)
(-0.0115656 -0.000710023 -3.59751e-24)
(-0.0113736 -0.0021231 -3.48967e-24)
(-0.0108892 -0.00344809 -3.05293e-22)
(-0.0103847 -0.00473602 1.50836e-21)
(-0.00933549 -0.00574361 -2.4786e-21)
(-0.00882695 -0.00687218 -8.73804e-24)
(-0.00681793 -0.00715941 -2.07341e-21)
(-0.00730207 -0.00842198 -6.71814e-22)
(-0.00280894 -0.00699151 -8.89002e-23)
(-0.00730699 -0.00956189 -2.27838e-21)
(0.00442101 -0.00399179 0)
(-0.0112078 -0.0102198 0)
(0.0180188 0.00315057 -3.69259e-20)
(-0.0147268 -0.00849903 4.68713e-23)
(0.0186583 -0.00141772 1.73203e-22)
(-0.0126174 -0.000795716 3.61125e-24)
(-0.0123982 -0.00237815 -3.66358e-24)
(-0.0118692 -0.00386442 6.35769e-22)
(-0.0112812 -0.00529865 4.30948e-23)
(-0.0101594 -0.00644255 1.2352e-21)
(-0.00949552 -0.00766046 -1.09198e-21)
(-0.00743502 -0.00806394 4.22249e-21)
(-0.00763305 -0.00928023 6.38726e-22)
(-0.00322691 -0.0080194 -3.9078e-21)
(-0.00714038 -0.0101874 1.39797e-21)
(0.0042079 -0.00510082 -2.9708e-23)
(-0.0102839 -0.0100822 -1.15947e-22)
(0.0180379 0.00147593 1.81885e-20)
(-0.0145453 -0.00849486 0)
(0.0230154 -0.00125509 1.74202e-22)
(-0.0135247 -0.000877939 -4.68907e-24)
(-0.0132796 -0.00262224 -1.55094e-22)
(-0.0127081 -0.00426304 -3.27295e-22)
(-0.0120407 -0.00583635 -8.26546e-22)
(-0.0108487 -0.00711004 -2.00159e-23)
(-0.0100385 -0.00841199 1.16382e-21)
(-0.00792437 -0.00892146 2.33261e-23)
(-0.00785417 -0.0100972 -1.02351e-21)
(-0.00351612 -0.00897256 3.73552e-23)
(-0.00687219 -0.0107996 -1.43188e-21)
(0.0041153 -0.00608281 0)
(-0.00933217 -0.0101231 0)
(0.0179791 -9.4e-06 -5.56898e-23)
(-0.0136242 -0.00829317 8.31732e-23)
(0.0278513 -0.00106446 3.74004e-21)
(-0.0142767 -0.000956142 4.70708e-24)
(-0.0140071 -0.00285379 3.24252e-22)
(-0.0133952 -0.00464119 -8.65276e-24)
(-0.0126529 -0.00634552 1.22633e-23)
(-0.0113936 -0.0077413 1.40451e-21)
(-0.0104461 -0.00912118 8.51684e-24)
(-0.00827692 -0.00972607 -2.21954e-21)
(-0.0079555 -0.010865 2.18738e-21)
(-0.00366952 -0.00984946 -3.83595e-23)
(-0.00650101 -0.0113852 -6.92976e-23)
(0.00413312 -0.00695661 5.95263e-23)
(-0.00835834 -0.0102794 -6.43825e-21)
(0.0180081 -0.00123238 1.53889e-20)
(-0.0119285 -0.00792387 4.54345e-23)
(0.0331624 -0.000854924 -3.71304e-21)
(-0.0148619 -0.00102974 0)
(-0.0145692 -0.00307114 -1.69387e-22)
(-0.0139192 -0.00499602 1.32456e-23)
(-0.0131067 -0.00682226 -1.2888e-23)
(-0.0117833 -0.00833127 -2.84887e-21)
(-0.0107074 -0.00978201 -8.52719e-24)
(-0.00848284 -0.0104714 2.79533e-23)
(-0.00792645 -0.011575 -1.12118e-21)
(-0.00368086 -0.0106466 -3.95223e-23)
(-0.00602435 -0.0119291 0)
(0.00425964 -0.0077264 0)
(-0.00732846 -0.0104757 6.59466e-21)
(0.0182779 -0.00215238 -1.59165e-20)
(-0.00943785 -0.00741724 -6.92968e-21)
(0.0389402 -0.000633999 3.96276e-21)
(-0.0152681 -0.00109813 0)
(-0.0149538 -0.0032725 0)
(-0.0142682 -0.00532449 1.3897e-23)
(-0.0133901 -0.00726246 6.23744e-24)
(-0.0120061 -0.00887462 -8.79036e-23)
(-0.0108106 -0.010388 2.23627e-23)
(-0.00853135 -0.0111505 -2.34292e-21)
(-0.00775572 -0.0122181 0)
(-0.00354307 -0.0113574 -2.63321e-23)
(-0.00543569 -0.0124133 5.60757e-23)
(0.00450792 -0.00838272 0)
(-0.00617991 -0.0106375 0)
(0.0189246 -0.0027548 0)
(-0.0061461 -0.0068031 1.38879e-20)
(0.0451718 -0.000407886 0)
(-0.0154822 -0.00116067 0)
(-0.015148 -0.00345603 1.99534e-22)
(-0.0144291 -0.00562347 3.9732e-22)
(-0.0134903 -0.0076618 0)
(-0.0120494 -0.00936575 1.47333e-21)
(-0.0107427 -0.0109323 5.574e-23)
(-0.00841045 -0.0117555 4.7139e-21)
(-0.00743087 -0.0127841 1.68927e-21)
(-0.00324657 -0.0119724 0)
(-0.00472156 -0.0128163 -1.0533e-22)
(0.00490793 -0.00890634 6.26859e-23)
(-0.00483174 -0.0106996 0)
(0.0200642 -0.00304544 3.31829e-23)
(-0.00206033 -0.00610998 -6.93454e-21)
(0.0518407 -0.000181593 7.94762e-21)
(-0.0154906 -0.00121674 6.83722e-24)
(-0.0151379 -0.00361984 -8.94602e-23)
(-0.0143883 -0.00588973 -5.20565e-24)
(-0.0133934 -0.00801576 1.48671e-23)
(-0.0118995 -0.0097988 2.59073e-23)
(-0.0104899 -0.0114077 -5.82749e-23)
(-0.0081066 -0.012278 5.2358e-23)
(-0.0069375 -0.0132614 -1.64591e-21)
(-0.00277757 -0.0124787 0)
(-0.00385931 -0.0131144 0)
(0.00550558 -0.00927317 0)
(-0.00319372 -0.0106115 0)
(0.0217913 -0.0030454 0)
(0.00280074 -0.00536442 0)
(0.0589272 4.09548e-05 -8.49051e-21)
(-0.0152788 -0.00126568 -7.79542e-24)
(-0.014909 -0.00376199 -1.05555e-22)
(-0.0141312 -0.00611999 -8.30827e-22)
(-0.0130846 -0.00831973 -3.79635e-23)
(-0.0115415 -0.0101677 -5.51835e-24)
(-0.0100365 -0.0118063 2.59955e-23)
(-0.00760439 -0.0127087 -2.54574e-21)
(-0.00625846 -0.0136376 3.34167e-23)
(-0.00211665 -0.0128614 3.66023e-23)
(-0.00281624 -0.013283 -9.75561e-22)
(0.0063598 -0.00945903 7.28003e-21)
(-0.0011743 -0.0103393 0)
(0.0241778 -0.0027866 1.42278e-20)
(0.00840852 -0.00459043 1.85143e-23)
(0.0664098 0.000256825 -8.30633e-21)
(-0.0148314 -0.00130685 1.01543e-23)
(-0.014446 -0.00388053 -1.02675e-24)
(-0.0136423 -0.00631093 4.32924e-22)
(-0.0125482 -0.008569 -2.33344e-23)
(-0.0109592 -0.0104663 -1.70724e-21)
(-0.00936565 -0.0121202 -3.63381e-23)
(-0.00688612 -0.0130376 -2.58309e-21)
(-0.00537309 -0.0138993 -2.21092e-21)
(-0.00123798 -0.0131041 0)
(-0.00155 -0.0132984 9.57436e-22)
(0.00753831 -0.00944365 -7.42026e-21)
(0.00131312 -0.00986534 -3.05661e-21)
(0.0272739 -0.00230783 -1.46099e-20)
(0.0147264 -0.00380901 1.63705e-23)
(0.0742656 0.000463986 8.84617e-21)
(-0.0141326 -0.00133961 6.59207e-25)
(-0.0137328 -0.00397356 0)
(-0.0129051 -0.0064593 0)
(-0.0117672 -0.0087589 1.32153e-21)
(-0.0101353 -0.0106883 1.74661e-21)
(-0.00845854 -0.0123414 9.26577e-24)
(-0.00593148 -0.0132547 5.38854e-21)
(-0.00425667 -0.0140329 4.54727e-21)
(-0.000109091 -0.0131908 0)
(-1.00475e-05 -0.0131403 -1.576e-21)
(0.00911295 -0.00921343 7.32915e-21)
(0.00434531 -0.00918771 2.97282e-21)
(0.0311091 -0.00165136 -1.39946e-20)
(0.021712 -0.00303786 5.55154e-21)
(0.082471 0.000661207 0)
(-0.0131655 -0.00136336 -1.09967e-23)
(-0.0127525 -0.00403924 -1.2605e-22)
(-0.0119025 -0.00656194 -1.81039e-23)
(-0.0107237 -0.00888492 -5.84179e-22)
(-0.00905067 -0.0108277 -2.44651e-23)
(-0.00729452 -0.0124618 0)
(-0.0047173 -0.0133499 -2.72743e-21)
(-0.00288022 -0.0140254 -2.41318e-21)
(0.00130861 -0.0131069 4.21687e-21)
(0.00186005 -0.0127933 1.64333e-21)
(0.0111551 -0.00876327 -1.47662e-20)
(0.00798569 -0.00831729 0)
(0.0356937 -0.000860123 1.44229e-20)
(0.0293188 -0.00229122 -5.78052e-21)
(0.0910028 0.000847945 -8.80661e-21)
(-0.0119129 -0.00137753 1.12208e-23)
(-0.0114874 -0.00407582 1.21743e-22)
(-0.0106163 -0.0066159 -4.77261e-22)
(-0.0093987 -0.00894276 -6.98805e-22)
(-0.00768518 -0.0108787 -1.92848e-21)
(-0.00585097 -0.0124742 0)
(-0.00321756 -0.013314 -4.44331e-23)
(-0.0012107 -0.0138655 4.17325e-23)
(0.00305872 -0.0128409 -4.31834e-21)
(0.00411968 -0.0122481 -8.42873e-23)
(0.0137316 -0.00809708 1.48813e-20)
(0.0122824 -0.00727526 1.36531e-21)
(0.041022 2.45513e-05 1.37915e-20)
(0.0374982 -0.00157992 5.34143e-21)
(0.099838 0.00102422 9.31169e-21)
(-0.0103568 -0.00138163 -2.19348e-23)
(-0.00991936 -0.00408176 -1.24477e-24)
(-0.00902768 -0.00661851 3.85949e-24)
(-0.0077722 -0.00892858 -7.52332e-22)
(-0.00601716 -0.0108363 -5.57645e-23)
(-0.00410341 -0.0123717 -4.24258e-23)
(-0.0014035 -0.013139 4.04011e-23)
(0.000788372 -0.0135441 0)
(0.0051882 -0.0123856 4.47121e-21)
(0.00682824 -0.0115029 8.6302e-23)
(0.0169013 -0.00722752 -2.01623e-22)
(0.0172673 -0.00609005 -2.61836e-21)
(0.0470742 0.000964689 -2.76036e-20)
(0.0462015 -0.000911497 -3.13469e-22)
(0.108955 0.00119047 0)
(-0.00847897 -0.0013752 1.19702e-23)
(-0.00802965 -0.00405571 0)
(-0.00711713 -0.00656749 5.22339e-22)
(-0.00582331 -0.00883907 -2.39179e-23)
(-0.00402372 -0.010696 -5.50516e-23)
(-0.00202563 -0.0121489 -4.39678e-23)
(0.000755928 -0.0128189 -3.08761e-21)
(0.00315604 -0.0130553 -3.0233e-21)
(0.0077454 -0.0117388 -9.1012e-21)
(0.0100421 -0.0105631 8.81437e-23)
(0.0207124 -0.00617485 -1.49409e-20)
(0.0229566 -0.0047945 1.81225e-21)
(0.0538201 0.00192686 1.39e-20)
(0.0553808 -0.000290491 -1.048e-20)
(0.118334 0.00134745 -9.2488e-21)
(-0.00626054 -0.00135793 1.36076e-24)
(-0.00579905 -0.00399662 -1.50398e-22)
(-0.00486455 -0.00646103 -5.34385e-22)
(-0.00353042 -0.00867169 7.734e-22)
(-0.00168093 -0.0104547 2.04726e-21)
(0.000409972 -0.0118022 2.53874e-21)
(0.00329346 -0.01235 3.113e-21)
(0.00593269 -0.0123973 3.05465e-21)
(0.0107781 -0.0109038 4.63105e-21)
(0.0138122 -0.00944108 8.97613e-23)
(0.0252011 -0.00496538 6.41379e-23)
(0.0293516 -0.00342314 -7.19264e-22)
(0.0612214 0.00288291 -1.3061e-20)
(0.0649906 0.000281193 1.02828e-20)
(0.127956 0.00149608 9.77785e-21)
(-0.00368258 -0.00132956 0)
(-0.00320811 -0.00390376 1.49667e-22)
(-0.00224947 -0.00629794 -1.45953e-23)
(-0.000871327 -0.00842479 0)
(0.0010359 -0.0101104 2.23142e-21)
(0.00323193 -0.0113295 -2.50049e-21)
(0.00624274 -0.0117318 3.21903e-21)
(0.00915867 -0.0115721 4.98914e-23)
(0.0143313 -0.00988961 -6.30413e-23)
(0.0181816 -0.0081556 -3.13547e-21)
(0.0303907 -0.00362962 7.49706e-21)
(0.0364408 -0.00201002 0)
(0.0692347 0.00381028 1.34284e-20)
(0.0749887 0.000803833 -2.39493e-22)
(0.137804 0.00163732 -3.162e-23)
(-0.000726019 -0.00129 1.46282e-24)
(-0.00023725 -0.0037768 -8.53281e-24)
(0.000748776 -0.0060777 5.82123e-22)
(0.00217643 -0.00809778 3.09514e-23)
(0.00415185 -0.00966268 -4.49299e-21)
(0.00646915 -0.0107313 4.83635e-23)
(0.00963739 -0.0109666 1.27439e-23)
(0.0128729 -0.0105865 -3.46452e-21)
(0.0184455 -0.00871031 4.77731e-21)
(0.0231842 -0.00673029 3.3944e-21)
(0.0362916 -0.00220034 -8.31711e-23)
(0.0442016 -0.000586848 3.60918e-22)
(0.0778138 0.0046919 -1.18281e-22)
(0.0853365 0.00127942 -5.07563e-21)
(0.147864 0.00177212 0)
(0.0026281 -0.00123929 0)
(0.00313305 -0.00361585 -7.28217e-24)
(0.00415083 -0.00580057 7.19523e-24)
(0.00563535 -0.00769124 0)
(0.007692 -0.00911293 -4.53687e-23)
(0.0101503 -0.0100104 2.80658e-21)
(0.01351 -0.0100604 -3.53692e-21)
(0.0171114 -0.0094512 3.55343e-21)
(0.0231553 -0.00738472 -4.90288e-21)
(0.0288442 -0.00519247 9.29031e-23)
(0.0429023 -0.000710769 -7.3354e-21)
(0.0526033 0.000818256 -2.36727e-22)
(0.0869121 0.00551589 0)
(0.0959997 0.00171117 4.70233e-21)
(0.158121 0.00190128 0)
(0.00639846 -0.00117761 1.55608e-24)
(0.00692202 -0.00342147 5.92741e-24)
(0.00797704 -0.00546762 -6.03485e-22)
(0.00952757 -0.00720702 -2.3195e-23)
(0.011681 -0.00846428 4.69855e-21)
(0.0143031 -0.00917208 -2.72552e-21)
(0.0178913 -0.00902207 -4.88856e-23)
(0.0219063 -0.00818101 0)
(0.0284882 -0.00593531 5.03827e-21)
(0.035175 -0.00357157 -6.44167e-23)
(0.0502108 0.000807031 7.44377e-21)
(0.0616091 0.0021816 7.33638e-23)
(0.0964842 0.00627495 1.18422e-20)
(0.106948 0.00210307 -4.87533e-21)
(0.168564 0.00202547 9.8039e-21)
(0.0106033 -0.0011053 1.62665e-23)
(0.0111484 -0.00319475 -7.65421e-24)
(0.0122472 -0.00508083 1.26361e-21)
(0.0138746 -0.00664829 0)
(0.0161423 -0.00772174 -2.34197e-21)
(0.0189537 -0.00822416 2.8102e-21)
(0.0228089 -0.0078639 -9.24483e-24)
(0.0272846 -0.00679393 -3.74519e-21)
(0.0344635 -0.00438725 -5.02955e-21)
(0.0421805 -0.00189773 0)
(0.0581958 0.00232346 0)
(0.0711783 0.00348429 1.22995e-22)
(0.106487 0.00696567 -1.24065e-20)
(0.118155 0.00245947 0)
(0.179182 0.00214512 -2.01946e-20)
(0.01526 -0.0010229 -1.79687e-23)
(0.0158302 -0.00293725 1.62816e-24)
(0.0169803 -0.00464304 3.43382e-23)
(0.0186968 -0.00601954 9.02049e-22)
(0.0210982 -0.0068921 0)
(0.0241258 -0.00717673 9.41314e-23)
(0.0282869 -0.00660067 -5.10078e-23)
(0.0332673 -0.00531059 7.72501e-21)
(0.0410929 -0.00276721 4.96507e-21)
(0.0498551 -0.000200448 4.02407e-21)
(0.0668292 0.00381231 0)
(0.0812685 0.00471225 0)
(0.11688 0.00758777 5.84864e-24)
(0.129599 0.0027847 -4.36802e-21)
(0.189967 0.00226047 4.074e-22)
(0.0203853 -0.000931055 -8.56012e-24)
(0.0209843 -0.00265107 0)
(0.0221942 -0.00415796 -6.23846e-22)
(0.0240132 -0.00532653 -9.5587e-22)
(0.0265689 -0.00598389 -1.25249e-21)
(0.0298404 -0.00604197 8.60017e-23)
(0.034345 -0.00524939 -5.1864e-23)
(0.0398695 -0.0037534 -3.99715e-21)
(0.0483799 -0.00110234 -5.10221e-21)
(0.0581851 0.00149252 -3.94667e-21)
(0.0760775 0.00525142 0)
(0.0918377 0.0058559 1.16235e-21)
(0.127629 0.00814327 0)
(0.141261 0.00308283 2.64366e-22)
(0.200909 0.00237154 1.04426e-20)
(0.0259945 -0.00083061 6.8929e-24)
(0.0266267 -0.00233875 1.92407e-22)
(0.0279052 -0.00363013 1.7544e-23)
(0.0298411 -0.00457621 9.32268e-22)
(0.0325721 -0.00500711 1.25993e-21)
(0.0361151 -0.00483379 -3.03857e-21)
(0.0409982 -0.00382871 -6.21591e-23)
(0.0470998 -0.0021457 -1.40654e-23)
(0.0563205 0.000580783 6.96818e-23)
(0.0671503 0.00315602 9.17483e-23)
(0.085904 0.00662285 -2.26452e-23)
(0.102845 0.00690967 -1.35855e-21)
(0.1387 0.0086358 9.58253e-23)
(0.153124 0.00335746 4.46207e-21)
(0.212001 0.00247818 1.00319e-20)
(0.0321019 -0.000722538 0)
(0.0327717 -0.00200333 -1.91594e-22)
(0.0341283 -0.00306486 8.12752e-24)
(0.0361955 -0.00377657 -9.62361e-22)
(0.0391229 -0.00397308 4.49124e-23)
(0.0429635 -0.00356744 1.12252e-23)
(0.0482565 -0.0023583 -5.31134e-23)
(0.0549603 -0.000510979 0)
(0.0649041 0.00225702 5.02392e-21)
(0.076725 0.00476812 0)
(0.0962701 0.00791296 -6.60965e-21)
(0.114251 0.00787135 1.36924e-21)
(0.150067 0.0090699 -1.04424e-20)
(0.165176 0.00361157 0)
(0.223236 0.00258007 -2.05686e-20)
(0.0387201 -0.000607943 -1.74753e-24)
(0.039432 -0.00164819 1.73945e-24)
(0.0408762 -0.00246807 7.07288e-22)
(0.0430894 -0.00293645 -2.57953e-23)
(0.0462334 -0.00289407 -1.29179e-21)
(0.0503957 -0.00225905 5.5271e-23)
(0.0561247 -0.00085823 -1.16492e-22)
(0.0634474 0.0011279 -1.30784e-23)
(0.0741145 0.00390332 4.97414e-23)
(0.0868795 0.0063104 1.99176e-23)
(0.107137 0.00911205 6.64258e-21)
(0.126022 0.00874138 4.81217e-23)
(0.161706 0.00945051 1.57936e-20)
(0.177403 0.00384748 4.38334e-23)
(0.234607 0.00267678 1.0495e-20)
(0.0458599 -0.000488037 8.99135e-24)
(0.0466185 -0.00127708 -1.96726e-22)
(0.0481597 -0.00184625 9.61997e-24)
(0.050533 -0.0020654 -9.84937e-22)
(0.0539124 -0.00178305 1.29939e-21)
(0.0584174 -0.000925213 -1.56724e-21)
(0.0646029 0.0006516 0)
(0.0725522 0.00274932 -7.32104e-23)
(0.0839303 0.00549926 -4.97754e-21)
(0.0975818 0.00776809 8.77542e-23)
(0.118467 0.010214 -2.05996e-23)
(0.138124 0.00952217 -1.63937e-21)
(0.173594 0.00978248 -5.11257e-21)
(0.189797 0.00406687 -3.83753e-21)
(0.246107 0.00276782 -3.29509e-23)
(0.0535305 -0.00036412 -1.07999e-23)
(0.0543402 -0.000893997 1.90926e-22)
(0.0559873 -0.00120626 -5.54913e-25)
(0.0585338 -0.00117339 9.89979e-22)
(0.0621654 -0.000653352 -1.30003e-21)
(0.0670302 0.000417493 6.38207e-23)
(0.0736862 0.00215201 -5.37521e-23)
(0.0822607 0.0043334 0)
(0.094327 0.0070273 -7.28221e-23)
(0.108799 0.00912994 1.54816e-22)
(0.130224 0.0112157 -8.0183e-23)
(0.15053 0.0102175 0)
(0.185716 0.0100703 -2.68665e-24)
(0.202347 0.00427077 4.01169e-21)
(0.25773 0.00285264 0)
(0.0617389 -0.000237549 0)
(0.0626039 -0.000503104 -8.42564e-24)
(0.0643652 -0.000555223 -1.05394e-21)
(0.0670966 -0.000270632 -9.99537e-22)
(0.0709945 0.00048168 2.6419e-21)
(0.076232 0.00175289 1.63537e-21)
(0.0833657 0.00362497 -3.81298e-21)
(0.0925554 0.00586243 -7.18318e-23)
(0.105277 0.00847294 -3.25792e-24)
(0.120496 0.010388 1.52289e-22)
(0.142374 0.0121165 5.88836e-21)
(0.163213 0.0108317 0)
(0.198054 0.010318 0)
(0.215045 0.00445971 0)
(0.269471 0.00293072 0)
(0.0704902 -0.000109716 -1.77353e-24)
(0.0714142 -0.000108671 1.0188e-23)
(0.0732971 9.96479e-05 2.03591e-23)
(0.0762233 0.00063267 1.95572e-21)
(0.0803986 0.00160896 -1.26066e-21)
(0.0860169 0.00306558 -9.93555e-23)
(0.0936288 0.00505397 7.5684e-21)
(0.103415 0.00732102 -7.08431e-23)
(0.116752 0.00982464 6.78939e-23)
(0.132641 0.0115371 0)
(0.154885 0.0129175 -6.06627e-21)
(0.176152 0.0113697 0)
(0.210596 0.0105287 -4.48331e-21)
(0.227884 0.00463377 -1.63562e-24)
(0.281322 0.00300156 -9.9414e-21)
(0.0797873 1.79835e-05 0)
(0.0807734 0.00028503 1.88373e-22)
(0.082784 0.000751185 3.12878e-24)
(0.0859129 0.00152652 -9.9247e-22)
(0.0903734 0.00271593 1.28488e-21)
(0.0963756 0.00434121 -1.49333e-21)
(0.10446 0.00642427 -5.64932e-21)
(0.114817 0.00869628 -3.94918e-21)
(0.128721 0.0110737 0)
(0.145202 0.0125746 8.00029e-23)
(0.167728 0.0136215 -7.52314e-23)
(0.189327 0.0118361 0)
(0.223329 0.0107051 2.54788e-22)
(0.240855 0.00479269 0)
(0.293278 0.00306474 1.03595e-20)
(0.0896309 0.000144176 1.75199e-24)
(0.0906818 0.000673801 -1.90921e-22)
(0.0928248 0.00139241 3.43832e-22)
(0.0961619 0.00240133 0)
(0.100912 0.00379085 -1.29227e-21)
(0.107296 0.00556676 3.08947e-21)
(0.115839 0.00772306 1.79501e-21)
(0.126736 0.00997774 3.97588e-21)
(0.141155 0.0122141 6.57471e-23)
(0.158148 0.0135001 7.77973e-23)
(0.180878 0.0142318 -7.33636e-23)
(0.20272 0.0122355 -1.66033e-21)
(0.236242 0.0108491 4.45029e-21)
(0.25395 0.00493601 0)
(0.305332 0.0031199 9.79135e-21)
(0.10002 0.000267537 0)
(0.101137 0.0010536 1.93325e-22)
(0.103416 0.00201666 3.5422e-22)
(0.106964 0.0032481 9.67268e-24)
(0.112004 0.00482291 -3.48894e-23)
(0.118763 0.00673067 -1.48868e-21)
(0.127748 0.00893955 -1.8359e-21)
(0.139146 0.0111573 -6.68967e-23)
(0.154024 0.0132419 -2.29993e-24)
(0.171452 0.0143145 -3.75678e-21)
(0.194311 0.0147523 0)
(0.216315 0.0125717 1.69261e-21)
(0.249324 0.0109622 0)
(0.267162 0.00506317 3.24981e-21)
(0.317478 0.00316678 -4.87466e-22)
(0.11095 0.00038681 6.42382e-24)
(0.112135 0.00142059 -1.84145e-22)
(0.114551 0.0026177 -5.77381e-24)
(0.118311 0.00405855 0)
(0.123637 0.00580243 4.36066e-23)
(0.13076 0.00782298 9.20048e-24)
(0.140162 0.0100649 3.49686e-21)
(0.15202 0.0122292 -6.5317e-23)
(0.167299 0.0141554 -2.07106e-24)
(0.185085 0.01502 4.0052e-21)
(0.208005 0.0151871 -6.94073e-23)
(0.2301 0.0128484 0)
(0.262566 0.0110452 -6.41826e-25)
(0.280484 0.00517354 -3.3464e-21)
(0.32971 0.00320523 -4.86953e-22)
(0.122416 0.000500833 -8.16538e-24)
(0.123669 0.00177124 -8.05338e-24)
(0.126222 0.00318982 -6.27469e-22)
(0.130192 0.00482522 -2.50947e-23)
(0.135797 0.00672096 -1.21798e-21)
(0.143268 0.00883533 1.46012e-21)
(0.15306 0.0110924 -1.76299e-21)
(0.165332 0.0131894 -1.89382e-21)
(0.180954 0.0149543 6.1518e-23)
(0.199025 0.0156197 7.0847e-23)
(0.221941 0.0155405 -2.52005e-21)
(0.244061 0.0130687 -8.19136e-23)
(0.275957 0.0110989 7.57767e-23)
(0.293908 0.00526655 0)
(0.342023 0.00323519 -4.85509e-22)
(0.134411 0.000608551 0)
(0.135732 0.00210233 -8.81461e-23)
(0.13842 0.0037279 3.28619e-22)
(0.142593 0.00554157 0)
(0.148468 0.0075713 3.05821e-23)
(0.156268 0.00976098 -3.9679e-23)
(0.166417 0.0120168 0)
(0.179056 0.0140358 1.78432e-21)
(0.194961 0.0156396 2.14592e-21)
(0.213247 0.0161171 -5.918e-23)
(0.236101 0.0158164 4.90417e-21)
(0.258185 0.013235 -4.76125e-23)
(0.289489 0.0111236 -2.5206e-25)
(0.307425 0.00534172 -2.95767e-21)
(0.35441 0.0032567 -9.80259e-21)
(0.146925 0.00070903 -1.60375e-24)
(0.148311 0.00241103 8.23623e-23)
(0.151131 0.00422746 7.71454e-24)
(0.155502 0.00620202 8.69468e-22)
(0.161632 0.00834755 6.53969e-23)
(0.169737 0.0105947 -1.39026e-21)
(0.180209 0.012835 -1.6753e-21)
(0.193166 0.0147678 -1.79672e-21)
(0.209297 0.0162135 -1.92715e-21)
(0.227731 0.0165163 8.59063e-24)
(0.25047 0.0160185 -1.36337e-22)
(0.272462 0.0133498 7.59781e-22)
(0.303151 0.0111197 -3.52525e-21)
(0.32103 0.00539869 3.03935e-21)
(0.366865 0.00326989 0)
(0.159947 0.000801467 0)
(0.161397 0.00269488 -8.41348e-23)
(0.164343 0.00468472 2.39004e-23)
(0.168901 0.00680198 -4.86468e-23)
(0.17527 0.00904507 2.31482e-21)
(0.183655 0.0113329 -4.73714e-23)
(0.194413 0.013545 1.63317e-21)
(0.207637 0.0153861 1.8029e-21)
(0.223937 0.0166789 1.89507e-21)
(0.242458 0.0168213 1.66689e-21)
(0.265031 0.0161504 -1.19201e-22)
(0.286882 0.0134149 -1.00712e-22)
(0.316935 0.0110875 3.66885e-21)
(0.334715 0.00543727 -2.6302e-27)
(0.379384 0.00327496 -9.00346e-21)
(0.173465 0.000885195 -1.51253e-24)
(0.174975 0.00295184 7.86037e-23)
(0.178041 0.00509657 7.3606e-24)
(0.182774 0.00733782 -8.86466e-22)
(0.189364 0.00966045 -1.10735e-21)
(0.197999 0.0119732 7.53356e-24)
(0.209004 0.0141462 -4.51872e-23)
(0.222447 0.0158922 1.57825e-21)
(0.23886 0.0170392 -1.91473e-21)
(0.257409 0.0170365 -1.94707e-23)
(0.27977 0.0162155 -7.0177e-23)
(0.301433 0.0134323 -1.62646e-21)
(0.330833 0.0110274 -3.26565e-21)
(0.348473 0.00545738 2.68327e-21)
(0.391962 0.00327221 9.298e-21)
(0.187464 0.000959685 0)
(0.18903 0.0031803 0)
(0.192208 0.00546061 0)
(0.197103 0.00780686 0)
(0.203891 0.0101914 0)
(0.212747 0.0125144 4.46344e-23)
(0.223959 0.0146395 -9.33716e-23)
(0.237571 0.0162889 -3.23493e-21)
(0.254046 0.0172983 1.06699e-22)
(0.272568 0.0171658 -1.6243e-21)
(0.294676 0.0162167 -2.18954e-21)
(0.316106 0.0134034 1.54862e-21)
(0.344835 0.0109397 6.46965e-21)
(0.362297 0.00545912 -5.34517e-21)
(0.404592 0.00326197 0)
(0.201929 0.00102455 4.01881e-24)
(0.203548 0.00337903 8.39161e-24)
(0.206828 0.0057751 -6.95318e-24)
(0.211869 0.00820733 0)
(0.218833 0.0106368 0)
(0.227877 0.0129566 4.32036e-23)
(0.239257 0.0150262 1.39408e-21)
(0.252989 0.0165791 3.06884e-21)
(0.269475 0.0174604 -1.64585e-21)
(0.287919 0.0172136 0)
(0.309734 0.0161571 4.26796e-23)
(0.330892 0.0133301 -7.23577e-23)
(0.358933 0.0108251 -3.19948e-21)
(0.376181 0.00544275 5.16613e-21)
(0.41727 0.00324463 0)
(0.216844 0.00107953 -5.44918e-24)
(0.21851 0.00354723 0)
(0.221882 0.00603895 2.13901e-23)
(0.227052 0.00853832 -5.01108e-23)
(0.234168 0.0109963 2.85918e-23)
(0.243367 0.0133007 0)
(0.254874 0.0153089 -1.44639e-21)
(0.26868 0.0167668 -1.58956e-21)
(0.285129 0.0175298 1.76156e-21)
(0.303447 0.0171838 0)
(0.324933 0.0160395 0)
(0.345781 0.013214 -6.88667e-22)
(0.373119 0.0106842 -5.88601e-23)
(0.390119 0.00540861 -4.98998e-21)
(0.429993 0.00322062 0)
(0.232192 0.00112449 -1.29271e-24)
(0.233899 0.00368445 -5.24619e-24)
(0.237352 0.00625168 -1.41892e-23)
(0.242632 0.00879968 -3.60162e-22)
(0.249875 0.0112707 -3.44341e-23)
(0.259197 0.0135486 1.19717e-21)
(0.27079 0.0154907 0)
(0.284625 0.016856 -4.83984e-23)
(0.300992 0.0175109 1.61344e-21)
(0.31914 0.0170805 5.20272e-23)
(0.340263 0.0158667 -5.03423e-23)
(0.360765 0.0130566 0)
(0.387385 0.0105178 0)
(0.404106 0.00535719 2.47675e-21)
(0.442755 0.0031904 0)
(0.247955 0.00115942 1.95969e-24)
(0.249698 0.00379063 6.86125e-23)
(0.253218 0.00641337 0)
(0.258591 0.00899197 -1.19804e-23)
(0.265934 0.0114613 5.99493e-23)
(0.275345 0.0137028 -2.36297e-21)
(0.286985 0.0155752 -1.24748e-21)
(0.300805 0.0168512 1.31725e-21)
(0.317047 0.0174083 -7.81488e-23)
(0.334982 0.0169075 4.48136e-23)
(0.355712 0.0156413 3.78836e-23)
(0.375836 0.0128598 2.0445e-23)
(0.401725 0.0103268 -5.43802e-23)
(0.418136 0.00528905 0)
(0.455553 0.00315443 0)
(0.264115 0.00118443 -3.13926e-24)
(0.265887 0.003866 -6.77386e-23)
(0.269463 0.00652459 0)
(0.274908 0.00911642 3.95333e-22)
(0.282324 0.0115702 -2.57785e-23)
(0.291791 0.0137664 1.12785e-21)
(0.30344 0.0155664 1.29405e-21)
(0.317202 0.016757 -1.37374e-21)
(0.333279 0.0172266 -1.47066e-21)
(0.350964 0.0166687 -4.30146e-23)
(0.37127 0.015366 0)
(0.390986 0.0126252 7.04167e-22)
(0.41613 0.0101122 -5.19183e-23)
(0.432204 0.00520482 -1.60148e-25)
(0.468382 0.00311321 0)
(0.280654 0.00119971 0)
(0.282448 0.0039111 0)
(0.286066 0.0065864 0)
(0.291564 0.00917477 -3.4103e-22)
(0.299027 0.0116001 -4.37939e-22)
(0.308517 0.0137431 0)
(0.320137 0.0154688 0)
(0.333802 0.0165782 -4.26961e-23)
(0.349674 0.0169701 -3.35481e-25)
(0.367072 0.0163678 8.67657e-23)
(0.386929 0.0150435 -4.42669e-23)
(0.406208 0.0123548 -1.2841e-21)
(0.430596 0.00987512 1.45895e-25)
(0.446306 0.00510519 -1.38847e-25)
(0.48124 0.0030672 0)
(0.297553 0.00120555 0)
(0.299363 0.00392676 0)
(0.303009 0.00660025 -2.27268e-22)
(0.308539 0.00916929 3.42648e-22)
(0.316022 0.0115542 4.88436e-23)
(0.325502 0.0136368 -2.92978e-23)
(0.337057 0.0152871 0)
(0.350587 0.0163197 1.16435e-21)
(0.366219 0.0166436 -2.64953e-25)
(0.383297 0.0160087 3.95158e-23)
(0.402678 0.0146764 1.51258e-21)
(0.421493 0.0120504 6.50876e-22)
(0.445115 0.00961668 -4.74974e-23)
(0.460438 0.00499087 -1.15896e-25)
(0.494122 0.00301687 0)
(0.314792 0.00120232 -9.85161e-25)
(0.316611 0.00391401 -5.07881e-23)
(0.320273 0.00656797 5.08952e-24)
(0.325814 0.00910265 -2.31112e-23)
(0.333291 0.011436 4.45994e-22)
(0.34273 0.0134521 3.30196e-23)
(0.354186 0.0150262 1.05867e-21)
(0.367544 0.0159865 -1.2525e-21)
(0.382903 0.0162515 -2.02641e-25)
(0.399628 0.015595 3.78313e-23)
(0.41851 0.0142675 -8.33753e-23)
(0.436837 0.011714 0)
(0.459682 0.00933804 -2.20531e-21)
(0.474595 0.00486262 1.93216e-21)
(0.507026 0.00296268 -6.78709e-21)
(0.332355 0.00119044 0)
(0.334176 0.0038741 5.73561e-23)
(0.337839 0.00649165 2.02434e-22)
(0.343372 0.00897788 1.63243e-23)
(0.350816 0.0112494 2.72564e-23)
(0.360183 0.0131934 -5.17859e-22)
(0.371506 0.0146912 -1.06647e-21)
(0.384658 0.0155835 -3.74027e-23)
(0.399712 0.0157982 -1.47888e-25)
(0.416055 0.0151304 3.61998e-23)
(0.434417 0.0138193 -2.73903e-21)
(0.452232 0.0113473 1.53383e-23)
(0.474291 0.0090404 2.19089e-21)
(0.488774 0.00472117 -1.96237e-21)
(0.519949 0.00290505 6.9145e-21)
(0.350223 0.0011704 -4.80699e-25)
(0.352039 0.00380848 8.62029e-25)
(0.355689 0.00637371 1.57223e-23)
(0.361194 0.00879833 5.62465e-24)
(0.36858 0.0109987 -2.1126e-23)
(0.377846 0.0128657 4.31305e-22)
(0.389004 0.0142871 3.00007e-23)
(0.401918 0.015116 0)
(0.416637 0.0152883 -1.11657e-21)
(0.43257 0.0146186 -1.06692e-21)
(0.45039 0.0133346 1.35724e-21)
(0.467673 0.0109525 4.26537e-23)
(0.488937 0.00872491 -4.12888e-23)
(0.502971 0.00456727 2.06284e-23)
(0.532886 0.00284436 -1.97321e-23)
(0.368377 0.00114275 -1.31906e-24)
(0.370182 0.00371872 4.96493e-23)
(0.373807 0.00621675 0)
(0.379263 0.00856758 2.77662e-22)
(0.386568 0.0106883 0)
(0.395703 0.012474 2.90574e-23)