/*--------------------------------*- C++ -*----------------------------------*\
| =========                 |                                                 |
| \\      /  F ield         | OpenFOAM: The Open Source CFD Toolbox           |
|  \\    /   O peration     | Version:  2.4.0                                 |
|   \\  /    A nd           | Web:      www.OpenFOAM.org                      |
|    \\/     M anipulation  |                                                 |
\*---------------------------------------------------------------------------*/
FoamFile
{
    version     2.0;
    format      ascii;
    class       volScalarField;
    location    "0.02";
    object      p;
}
// * * * * * * * * * * * * * * * * * * * * * * * * * * * * * * * * * * * * * //

dimensions      [0 2 -2 0 0 0 0];

internalField   nonuniform List<scalar> 
7200
(
-4.93938e-06
-1.64927
1.06445
-1.14032
-0.207198
-0.635209
-0.504397
-0.594437
-0.592756
-0.62328
-0.639869
-0.660147
-0.678364
-0.696999
-0.715622
-0.73481
-0.754751
-0.776074
-0.798322
-0.825459
-0.845355
-0.906046
-0.840948
-1.23324
-0.120435
-4.07149
8.58899
-28.7739
54.6154
-58.0711
-0.0204791
-1.70343
0.785188
-0.863806
-0.298903
-0.590096
-0.514589
-0.585469
-0.592021
-0.620599
-0.63864
-0.659187
-0.678021
-0.697197
-0.716437
-0.736311
-0.757057
-0.779279
-0.802837
-0.830581
-0.855291
-0.906335
-0.887268
-1.12855
-0.564801
-2.64064
3.97433
-17.8753
38.4235
-48.3169
-0.0132736
-1.75871
0.548695
-0.718948
-0.321633
-0.570527
-0.515484
-0.580632
-0.590551
-0.618748
-0.637585
-0.658473
-0.677776
-0.697415
-0.717182
-0.737665
-0.759138
-0.782214
-0.806934
-0.835689
-0.863281
-0.912335
-0.909921
-1.11033
-0.700389
-2.24642
2.28611
-12.6617
28.6206
-42.4623
-0.000515632
-1.79278
0.33594
-0.650103
-0.327918
-0.556461
-0.514717
-0.576803
-0.589255
-0.617237
-0.636706
-0.657859
-0.677545
-0.697567
-0.717792
-0.738818
-0.760969
-0.784852
-0.810714
-0.840488
-0.870873
-0.918592
-0.930633
-1.10051
-0.798596
-2.02728
1.3955
-9.68576
21.8155
-37.6224
0.0136367
-1.80616
0.142426
-0.630462
-0.333795
-0.546743
-0.513661
-0.573729
-0.588227
-0.616038
-0.636005
-0.657337
-0.677322
-0.697651
-0.718269
-0.739786
-0.762576
-0.787245
-0.814245
-0.84511
-0.878174
-0.925458
-0.949437
-1.09785
-0.87024
-1.89916
0.847591
-7.85188
16.758
-33.3016
0.0276947
-1.80468
-0.0257057
-0.646624
-0.346107
-0.542033
-0.513759
-0.571603
-0.587671
-0.615229
-0.635536
-0.656939
-0.677119
-0.697664
-0.718597
-0.740538
-0.763918
-0.789343
-0.817464
-0.849483
-0.885156
-0.932582
-0.967206
-1.0974
-0.934263
-1.81315
0.457218
-6.72158
13.0164
-29.4985
0.0405398
-1.79361
-0.165409
-0.68679
-0.367854
-0.543334
-0.516193
-0.570897
-0.587849
-0.614945
-0.63538
-0.656707
-0.676949
-0.697597
-0.718746
-0.741024
-0.764922
-0.791055
-0.820258
-0.853476
-0.891652
-0.939759
-0.983661
-1.0996
-0.995339
-1.75306
0.139798
-6.01871
10.2956
-26.1523
0.0513207
-1.7775
-0.277494
-0.740059
-0.399505
-0.551176
-0.52192
-0.572116
-0.589068
-0.615341
-0.635627
-0.656689
-0.67683
-0.69744
-0.718681
-0.741189
-0.765512
-0.79228
-0.822499
-0.856927
-0.897497
-0.946719
-0.998938
-1.10468
-1.05564
-1.70835
-0.148688
-5.53141
8.32902
-23.1875
0.0595156
-1.75999
-0.365068
-0.797759
-0.439614
-0.565536
-0.531538
-0.575722
-0.591639
-0.61659
-0.636377
-0.656935
-0.676777
-0.697182
-0.718366
-0.740971
-0.765597
-0.792901
-0.824042
-0.859654
-0.902496
-0.953208
-1.01309
-1.11259
-1.11412
-1.67326
-0.417542
-5.12375
6.90322
-20.5417
0.0648007
-1.74371
-0.432397
-0.85377
-0.485725
-0.585823
-0.545257
-0.582047
-0.595836
-0.618864
-0.637733
-0.657498
-0.676806
-0.69681
-0.717759
-0.740299
-0.765079
-0.792785
-0.824716
-0.861439
-0.906407
-0.958899
-1.02594
-1.12237
-1.16805
-1.64235
-0.658746
-4.71967
5.85721
-18.1644
0.0669449
-1.73032
-0.484141
-0.904304
-0.535114
-0.611007
-0.56293
-0.591246
-0.601864
-0.622314
-0.639791
-0.65843
-0.676934
-0.696305
-0.716813
-0.739096
-0.763846
-0.791781
-0.824324
-0.862026
-0.908915
-0.963326
-1.03691
-1.13211
-1.21373
-1.60942
-0.859008
-4.28416
5.0724
-16.0138
0.0657404
-1.72064
-0.524811
-0.947516
-0.585289
-0.639811
-0.584123
-0.603289
-0.609832
-0.627051
-0.642631
-0.659773
-0.67717
-0.695649
-0.715477
-0.737277
-0.761774
-0.789717
-0.822639
-0.861103
-0.909607
-0.965826
-1.04496
-1.13915
-1.24714
-1.56792
-1.00659
-3.80851
4.46384
-14.056
0.060956
-1.7149
-0.558413
-0.983038
-0.634284
-0.670903
-0.608208
-0.617981
-0.619748
-0.633135
-0.646311
-0.661561
-0.677519
-0.694816
-0.713693
-0.734748
-0.758726
-0.786404
-0.819398
-0.858302
-0.907957
-0.965523
-1.04865
-1.14047
-1.26445
-1.51174
-1.09454
-3.29946
3.97286
-12.2636
0.0523084
-1.71293
-0.588264
-1.01151
-0.680773
-0.703065
-0.634468
-0.635003
-0.631527
-0.640573
-0.650859
-0.663814
-0.67798
-0.693777
-0.711401
-0.73141
-0.754557
-0.781633
-0.814308
-0.853196
-0.903332
-0.961367
-1.0463
-1.13301
-1.26243
-1.43611
-1.1215
-2.77119
3.56072
-10.6146
0.0394479
-1.71433
-0.616944
-1.03419
-0.724067
-0.735297
-0.662187
-0.653961
-0.645009
-0.64932
-0.656273
-0.666533
-0.678541
-0.692498
-0.708537
-0.727161
-0.749112
-0.77518
-0.807048
-0.845313
-0.895015
-0.952204
-1.03614
-1.11406
-1.2388
-1.33816
-1.09118
-2.23995
3.20319
-9.09176
0.0219552
-1.71866
-0.646344
-1.0526
-0.764026
-0.766887
-0.690726
-0.674439
-0.659984
-0.65929
-0.662524
-0.669708
-0.679184
-0.690942
-0.705034
-0.721895
-0.742234
-0.766815
-0.797281
-0.834149
-0.882255
-0.936874
-1.01657
-1.08151
-1.19243
-1.21716
-1.01093
-1.72067
2.88618
-7.6815
-0.000655463
-1.72549
-0.677771
-1.06829
-0.800937
-0.797421
-0.719573
-0.696045
-0.67622
-0.670366
-0.669563
-0.673312
-0.679886
-0.68907
-0.700827
-0.715509
-0.733767
-0.756306
-0.784668
-0.819202
-0.86432
-0.914323
-0.986287
-1.03402
-1.12335
-1.07434
-0.890267
-1.22519
2.60221
-6.37312
-0.0289275
-1.73452
-0.71208
-1.08273
-0.835375
-0.826761
-0.748368
-0.718443
-0.693489
-0.68242
-0.677324
-0.677311
-0.680618
-0.686845
-0.695855
-0.707905
-0.723562
-0.743432
-0.768888
-0.800006
-0.840559
-0.883693
-0.944411
-0.971059
-1.03273
-0.91254
-0.739367
-0.761694
2.34779
-5.15818
-0.0634514
-1.74554
-0.7498
-1.09716
-0.868085
-0.855006
-0.776914
-0.741379
-0.711592
-0.695326
-0.685738
-0.681666
-0.681352
-0.684229
-0.690063
-0.698997
-0.711486
-0.727997
-0.749655
-0.776162
-0.810457
-0.844402
-0.890576
-0.89292
-0.922708
-0.735708
-0.567989
-0.334788
2.1216
-4.02994
-0.104852
-1.7585
-0.791254
-1.11262
-0.899877
-0.882437
-0.805165
-0.764691
-0.730373
-0.708973
-0.694739
-0.686341
-0.682062
-0.681196
-0.683407
-0.688714
-0.697432
-0.709838
-0.726742
-0.747371
-0.773679
-0.796186
-0.824925
-0.800605
-0.796095
-0.548318
-0.384695
0.0539098
1.92317
-2.98287
-0.153778
-1.77347
-0.836646
-1.12994
-0.931553
-0.909458
-0.833208
-0.788311
-0.749728
-0.723275
-0.704272
-0.691305
-0.68273
-0.677727
-0.675858
-0.677008
-0.681319
-0.688841
-0.699998
-0.71346
-0.730097
-0.739116
-0.748078
-0.695687
-0.656161
-0.354902
-0.196461
0.405037
1.75213
-2.01228
-0.21089
-1.79061
-0.886135
-1.14976
-0.963862
-0.936548
-0.861234
-0.81226
-0.769612
-0.738179
-0.714302
-0.696539
-0.683347
-0.673815
-0.667405
-0.663853
-0.663108
-0.664949
-0.669357
-0.674394
-0.679801
-0.673582
-0.661058
-0.580145
-0.506341
-0.159661
-0.00857534
0.720737
1.60781
-1.11408
-0.276849
-1.81014
-0.939868
-1.1726
-0.997478
-0.964221
-0.889516
-0.836637
-0.790039
-0.753671
-0.724815
-0.70204
-0.683919
-0.66947
-0.658057
-0.649256
-0.642801
-0.638165
-0.634853
-0.630284
-0.623089
-0.600253
-0.565201
-0.456193
-0.350004
0.0337914
0.175249
1.00399
1.48908
-0.284529
-0.352309
-1.83235
-0.998011
-1.19887
-1.03298
-0.99299
-0.918375
-0.861601
-0.811072
-0.769773
-0.735823
-0.707824
-0.68447
-0.664721
-0.647846
-0.633254
-0.620444
-0.608563
-0.596615
-0.581381
-0.560452
-0.52003
-0.462049
-0.326122
-0.190272
0.222557
0.352633
1.25811
1.39437
0.479853
-0.437903
-1.85753
-1.06075
-1.22891
-1.07089
-1.02335
-0.948166
-0.887363
-0.832822
-0.786542
-0.747364
-0.713926
-0.685038
-0.659616
-0.636829
-0.615917
-0.596132
-0.576281
-0.554866
-0.528064
-0.492538
-0.433973
-0.353248
-0.192167
-0.0298939
0.404481
0.522238
1.48635
1.32174
1.18242
-0.534239
-1.886
-1.12828
-1.26303
-1.11162
-1.05576
-0.979251
-0.914161
-0.855438
-0.804069
-0.759502
-0.720401
-0.685683
-0.654222
-0.625088
-0.59735
-0.570005
-0.541523
-0.509917
-0.47082
-0.420113
-0.343249
-0.24046
-0.0564076
0.12882
0.578094
0.683466
1.6917
1.26901
1.82642
-0.641884
-1.91804
-1.20081
-1.30151
-1.15554
-1.09064
-1.01199
-0.942259
-0.879094
-0.82247
-0.772322
-0.727324
-0.686482
-0.648625
-0.612729
-0.577688
-0.542248
-0.504547
-0.462149
-0.41022
-0.344027
-0.249062
-0.125287
0.0793052
0.284019
0.742515
0.836205
1.87678
1.23392
2.41505
-0.761354
-1.95396
-1.27854
-1.34461
-1.20298
-1.12837
-1.04673
-0.971923
-0.903984
-0.841883
-0.785933
-0.73479
-0.687528
-0.642933
-0.599881
-0.557095
-0.51308
-0.465663
-0.412003
-0.346896
-0.265167
-0.152605
-0.00921447
0.213383
0.434287
0.897328
0.980616
2.0438
1.21423
2.95144
-0.893102
-1.99401
-1.36166
-1.39259
-1.2542
-1.16928
-1.08379
-1.00342
-0.930313
-0.862461
-0.800453
-0.742904
-0.68893
-0.637267
-0.586691
-0.535763
-0.482756
-0.425216
-0.359959
-0.281511
-0.18443
-0.0550196
0.106425
0.344512
0.578599
1.04246
1.11699
2.19459
1.2078
3.43866
-1.0375
-2.03845
-1.4503
-1.44566
-1.30945
-1.21365
-1.12346
-1.037
-0.958285
-0.884366
-0.816016
-0.751787
-0.690809
-0.631762
-0.573326
-0.513901
-0.451552
-0.38358
-0.306521
-0.214741
-0.102687
0.0426406
0.220474
0.471648
0.71626
1.17806
1.24565
2.33069
1.21264
3.87971
-1.19482
-2.08749
-1.54458
-1.50402
-1.36891
-1.26174
-1.166
-1.0729
-0.988099
-0.907759
-0.83276
-0.761565
-0.693294
-0.626566
-0.559961
-0.491735
-0.419764
-0.341144
-0.252205
-0.147248
-0.0207597
0.139426
0.331956
0.593989
0.846842
1.30443
1.36691
2.45337
1.22694
4.2775
-1.36523
-2.14131
-1.64454
-1.56783
-1.43275
-1.31374
-1.21164
-1.11134
-1.01994
-0.932799
-0.850822
-0.772366
-0.69652
-0.621832
-0.546783
-0.469499
-0.387694
-0.298303
-0.197516
-0.0796691
0.060593
0.234504
0.440069
0.710949
0.970123
1.42193
1.48102
2.5637
1.24913
4.63488
-1.54874
-2.20004
-1.75018
-1.63723
-1.50108
-1.36981
-1.26057
-1.1525
-1.05399
-0.959634
-0.870337
-0.784322
-0.700622
-0.617713
-0.533981
-0.447433
-0.355647
-0.255446
-0.142945
-0.0125984
0.14069
0.327165
0.544179
0.822126
1.08603
1.53098
1.58821
2.66266
1.27779
4.95456
-1.74524
-2.2638
-1.86141
-1.71226
-1.57397
-1.43006
-1.31291
-1.19652
-1.09037
-0.988399
-0.891429
-0.797554
-0.705734
-0.614365
-0.521743
-0.425771
-0.323923
-0.212949
-0.0889524
0.053421
0.218932
0.416815
0.643796
0.927264
1.19462
1.63197
1.68868
2.75108
1.3117
5.23915
-1.95442
-2.33261
-1.97809
-1.79294
-1.65144
-1.49454
-1.36878
-1.24352
-1.12922
-1.01921
-0.914209
-0.812176
-0.711981
-0.611936
-0.510251
-0.404743
-0.292808
-0.171165
-0.0359641
0.117903
0.294807
0.502976
0.738565
1.02623
1.29599
1.7253
1.78259
2.82976
1.34981
5.49116
-2.17579
-2.40646
-2.09998
-1.87921
-1.73347
-1.56327
-1.42821
-1.29357
-1.17062
-1.05215
-0.93877
-0.828289
-0.719478
-0.610564
-0.499677
-0.384564
-0.262571
-0.130424
0.0156364
0.180424
0.367885
0.585272
0.828241
1.11899
1.39032
1.81135
1.87013
2.89945
1.3912
5.71296
-2.40866
-2.48527
-2.22677
-1.97091
-1.81993
-1.63619
-1.49121
-1.3467
-1.21461
-1.08728
-0.965182
-0.845975
-0.728325
-0.610374
-0.490179
-0.365434
-0.233458
-0.091019
0.0655107
0.240622
0.437816
0.663421
0.912673
1.20556
1.47782
1.89046
1.95147
2.96084
1.43508
5.90681
-2.65213
-2.56887
-2.35805
-2.06784
-1.91068
-1.71318
-1.55771
-1.40288
-1.2612
-1.12462
-0.993488
-0.865295
-0.738603
-0.611473
-0.481897
-0.34753
-0.20569
-0.0532119
0.113367
0.298194
0.504327
0.737226
0.991791
1.28606
1.55871
1.96299
2.0268
3.01461
1.48078
6.07484
-2.9051
-2.65702
-2.49335
-2.16967
-2.00546
-1.79406
-1.6276
-1.46204
-1.31035
-1.16418
-1.0237
-0.886285
-0.750373
-0.61395
-0.474952
-0.331009
-0.179457
-0.0172255
0.158963
0.352902
0.567213
0.806559
1.06559
1.3606
1.63326
2.02927
2.09634
3.06139
1.52772
6.21904
-3.16623
-2.74939
-2.63208
-2.27601
-2.10397
-1.87858
-1.70069
-1.52406
-1.362
-1.20591
-1.05581
-0.908955
-0.76367
-0.617869
-0.469439
-0.315998
-0.154919
0.0167554
0.202102
0.404558
0.626332
0.87136
1.13412
1.42937
1.70171
2.08963
2.16031
3.10178
1.5754
6.34132
-3.43401
-2.84555
-2.77359
-2.38638
-2.20582
-1.96642
-1.77676
-1.58876
-1.416
-1.24971
-1.08977
-0.933284
-0.778505
-0.62327
-0.465428
-0.302598
-0.132204
0.0485846
0.242634
0.453032
0.681599
0.931619
1.19747
1.49255
1.76433
2.14439
2.21896
3.13635
1.62341
6.44341
-3.70673
-2.945
-2.91712
-2.50019
-2.31053
-2.05721
-1.85549
-1.6559
-1.47219
-1.29547
-1.12547
-0.959222
-0.794859
-0.630167
-0.462964
-0.290881
-0.111407
0.0781542
0.280452
0.49824
0.732978
0.987376
1.25577
1.55036
1.82141
2.19388
2.27253
3.16562
1.67137
6.52698
-3.98252
-3.04716
-3.06187
-2.61679
-2.41757
-2.15047
-1.93653
-1.7252
-1.53033
-1.34301
-1.16281
-0.986684
-0.812685
-0.638545
-0.462062
-0.280889
-0.0925882
0.105393
0.315491
0.540142
0.78048
1.03871
1.30918
1.60303
1.87323
2.2384
2.3213
3.19011
1.71901
6.59354
-4.2594
-3.15136
-3.20697
-2.73544
-2.52633
-2.2457
-2.01945
-1.7963
-1.59017
-1.39212
-1.20162
-1.01556
-0.831905
-0.648361
-0.462709
-0.272634
-0.075778
0.130266
0.347725
0.578738
0.824151
1.08572
1.35787
1.65081
1.92007
2.27826
2.36552
3.21026
1.76606
6.64451
-4.53526
-3.25687
-3.35147
-2.85534
-2.63614
-2.34232
-2.10378
-1.86883
-1.65138
-1.44255
-1.2417
-1.04569
-0.852412
-0.659544
-0.464866
-0.266099
-0.0609742
0.152771
0.377163
0.614067
0.864072
1.12856
1.40206
1.69394
1.96221
2.31377
2.40547
3.22651
1.81234
6.68118
-4.80796
-3.36291
-3.49443
-2.97563
-2.74627
-2.43968
-2.18899
-1.94233
-1.7136
-1.49401
-1.28283
-1.0769
-0.874071
-0.671995
-0.468462
-0.261239
-0.048145
0.172937
0.403845
0.646194
0.900353
1.16738
1.44194
1.73267
1.99995
2.34521
2.44141
3.23924
1.85767
6.70477
-5.07533
-3.46867
-3.63485
-3.09542
-2.85595
-2.53713
-2.2745
-2.01633
-1.77643
-1.54616
-1.32474
-1.10898
-0.896715
-0.685588
-0.473402
-0.25798
-0.0372307
0.190824
0.427843
0.675218
0.933128
1.20236
1.47775
1.76728
2.03356
2.37289
2.4736
3.24882
1.90193
6.7164
-5.33522
-3.57331
-3.77176
-3.21377
-2.9644
-2.63394
-2.35972
-2.09031
-1.83944
-1.59866
-1.36713
-1.14169
-0.920154
-0.70017
-0.479567
-0.256225
-0.0281455
0.206515
0.449253
0.701257
0.96255
1.2337
1.50971
1.79801
2.06332
2.39706
2.50231
3.25558
1.94504
6.7171
-5.58554
-3.67599
-3.90418
-3.32977
-3.07079
-2.72938
-2.44399
-2.16372
-1.90218
-1.65111
-1.40969
-1.17477
-0.944173
-0.715566
-0.486813
-0.255852
-0.0207799
0.22012
0.468193
0.724451
0.988789
1.26159
1.53807
1.82512
2.0895
2.41801
2.52778
3.2598
1.98686
6.70755
-5.82432
-3.77588
-4.03118
-3.44248
-3.1743
-2.82271
-2.52668
-2.236
-1.96414
-1.70311
-1.45206
-1.20793
-0.968535
-0.731581
-0.494973
-0.256718
-0.0150034
0.231767
0.484802
0.744958
1.01203
1.28625
1.56305
1.84886
2.11236
2.43597
2.55025
3.26181
2.02761
6.68858
-6.04968
-3.8722
-4.15186
-3.551
-3.27413
-2.91319
-2.60713
-2.30657
-2.02484
-1.75423
-1.4939
-1.24087
-0.992985
-0.747999
-0.503866
-0.258662
-0.0106665
0.241604
0.499234
0.762949
1.03246
1.30789
1.5849
1.86949
2.13215
2.45119
2.56993
3.26175
2.06708
6.66116
-6.25993
-3.9642
-4.26539
-3.65448
-3.3695
-3.0001
-2.68468
-2.37485
-2.08377
-1.80402
-1.53482
-1.27326
-1.01725
-0.764591
-0.513292
-0.261507
-0.0076044
0.249793
0.511659
0.778606
1.05029
1.32674
1.60384
1.88724
2.14912
2.4639
2.58707
3.25992
2.10525
6.62586
-6.45351
-4.05118
-4.37103
-3.75211
-3.45967
-3.08272
-2.75869
-2.44027
-2.14042
-1.85206
-1.57445
-1.30479
-1.04106
-0.781114
-0.523039
-0.265062
-0.00563885
0.256508
0.522255
0.792118
1.06571
1.34301
1.62011
1.90235
2.16351
2.47431
2.60185
3.2565
2.14217
6.58322
-6.62894
-4.13249
-4.46809
-3.84316
-3.54395
-3.16041
-2.82857
-2.50227
-2.1943
-1.89791
-1.6124
-1.33512
-1.06412
-0.797318
-0.532885
-0.269126
-0.00458157
0.261933
0.531208
0.80368
1.07894
1.35692
1.63394
1.91504
2.17552
2.48263
2.61447
3.25166
2.1779
6.53376
-6.78503
-4.20771
-4.55603
-3.92696
-3.62171
-3.23255
-2.89372
-2.56034
-2.24494
-1.94113
-1.6483
-1.36393
-1.08613
-0.812946
-0.542603
-0.273491
-0.00423689
0.266259
0.538712
0.813492
1.09018
1.36868
1.64554
1.92553
2.18539
2.48904
2.62512
3.24556
2.21249
6.4779
-6.92108
-4.27626
-4.6343
-4.00298
-3.6924
-3.29859
-2.95364
-2.61396
-2.29187
-1.98132
-1.68178
-1.39087
-1.10682
-0.827743
-0.551961
-0.277945
-0.00440449
0.269682
0.544961
0.821752
1.09964
1.3785
1.65512
1.93402
2.19329
2.49372
2.63397
3.23832
2.24601
6.41603
-7.03638
-4.33782
-4.70259
-4.07071
-3.75555
-3.35804
-3.00784
-2.66269
-2.33468
-2.01808
-1.71248
-1.41565
-1.12589
-0.841454
-0.560728
-0.282274
-0.00488219
0.272397
0.550151
0.828657
1.10751
1.38658
1.66289
1.94071
2.19942
2.49684
2.64117
3.23006
2.27855
6.34846
-7.13043
-4.39212
-4.76062
-4.12978
-3.81074
-3.41048
-3.0559
-2.70612
-2.37297
-2.05106
-1.74008
-1.43794
-1.14308
-0.85383
-0.568676
-0.286267
-0.00546846
0.274599
0.554476
0.834403
1.11399
1.39313
1.66903
1.94579
2.20396
2.49854
2.64689
3.22088
2.31021
6.27543
-7.20295
-4.43899
-4.80821
-4.17991
-3.85769
-3.45558
-3.09747
-2.7439
-2.4064
-2.07993
-1.76426
-1.45748
-1.15813
-0.86463
-0.575583
-0.289715
-0.005965
0.276483
0.558126
0.839179
1.11928
1.39833
1.67374
1.94942
2.20707
2.49896
2.65125
3.21087
2.34107
6.19717
-7.25384
-4.47837
-4.84529
-4.22092
-3.89617
-3.49307
-3.13226
-2.77572
-2.43466
-2.10439
-1.78475
-1.474
-1.17077
-0.873626
-0.581236
-0.292416
-0.00617891
0.278235
0.561285
0.843169
1.12355
1.40235
1.67719
1.95177
2.20891
2.49824
2.65439
3.20009
2.37125
6.11383
-7.28319
-4.51026
-4.87188
-4.25273
-3.92605
-3.52276
-3.16005
-2.80134
-2.45751
-2.12418
-1.8013
-1.48725
-1.1808
-0.880604
-0.585432
-0.294179
-0.0059249
0.280036
0.564132
0.846548
1.12698
1.40538
1.67953
1.95299
2.2096
2.4965
2.65644
3.18861
2.40087
6.02554
-7.29123
-4.53477
-4.88808
-4.27534
-3.94727
-3.54454
-3.18069
-2.82057
-2.47474
-2.1391
-1.81369
-1.49703
-1.188
-0.885366
-0.587982
-0.294821
-0.0050272
0.282058
0.566835
0.849482
1.12973
1.40755
1.68093
1.95323
2.2093
2.49385
2.6575
3.17646
2.43006
5.93237
-7.27837
-4.55207
-4.89409
-4.28884
-3.95985
-3.55838
-3.19408
-2.83329
-2.48618
-2.14896
-1.82173
-1.50315
-1.1922
-0.887734
-0.588712
-0.294174
-0.00332127
0.284462
0.569553
0.85213
1.13196
1.40904
1.68152
1.95262
2.20811
2.49038
2.65768
3.16368
2.45894
5.83437
-7.24512
-4.56243
-4.89016
-4.2934
-3.9639
-3.5643
-3.2002
-2.83941
-2.49173
-2.15363
-1.82527
-1.50544
-1.19322
-0.887548
-0.587466
-0.292084
-0.000655326
0.287397
0.572434
0.854634
1.1338
1.40997
1.68143
1.95128
2.20616
2.48619
2.65707
3.15031
2.48765
5.73155
-7.19217
-4.56616
-4.87663
-4.28926
-3.95959
-3.5624
-3.19907
-2.83892
-2.49133
-2.15303
-1.82421
-1.50379
-1.19093
-0.884669
-0.584104
-0.288411
0.0031083
0.291
0.575612
0.85713
1.1354
1.41046
1.68079
1.94931
2.20354
2.48137
2.65578
3.13635
2.51633
5.62391
-7.12027
-4.56367
-4.85387
-4.27672
-3.94713
-3.55282
-3.19078
-2.83184
-2.48495
-2.14708
-1.81845
-1.49809
-1.18523
-0.87898
-0.578505
-0.283034
0.0080921
0.295393
0.57921
0.859737
1.13685
1.41064
1.67971
1.94684
2.20035
2.476
2.65389
3.12183
2.54513
5.51143
-7.03031
-4.55539
-4.82235
-4.25614
-3.9268
-3.53576
-3.17546
-2.81823
-2.47261
-2.13576
-1.80796
-1.48828
-1.17603
-0.870385
-0.570567
-0.275847
0.0144024
0.300683
0.583335
0.862562
1.13828
1.41061
1.67829
1.94394
2.19669
2.47016
2.65149
3.10677
2.57418
5.39406
-6.92329
-4.54183
-4.78255
-4.22791
-3.89891
-3.51145
-3.15325
-2.7982
-2.45435
-2.11909
-1.79269
-1.47429
-1.16326
-0.858808
-0.560209
-0.266765
0.0221284
0.306962
0.588078
0.865697
1.13978
1.41046
1.6766
1.9407
2.19264
2.46392
2.64864
3.09118
2.60362
5.27177
-6.80029
-4.52353
-4.73501
-4.19249
-3.86383
-3.48016
-3.12436
-2.77186
-2.43025
-2.0971
-1.77265
-1.45611
-1.14687
-0.844196
-0.547368
-0.255719
0.0313419
0.314302
0.593515
0.869218
1.14141
1.41026
1.67474
1.9372
2.18826
2.45735
2.64545
3.07509
2.63359
5.14454
-6.66252
-4.50106
-4.68029
-4.15033
-3.8219
-3.44218
-3.08899
-2.73937
-2.4004
-2.06983
-1.74786
-1.43374
-1.12686
-0.826514
-0.532001
-0.24266
0.0420963
0.322762
0.599704
0.873186
1.14325
1.41007
1.67276
1.93352
2.18364
2.45051
2.64198
3.05852
2.66421
5.0124
-6.5113
-4.47502
-4.61897
-4.1019
-3.77352
-3.39778
-3.04736
-2.70088
-2.36492
-2.03736
-1.71836
-1.40718
-1.10321
-0.805747
-0.514084
-0.227558
0.054426
0.332377
0.606687
0.877644
1.14533
1.40996
1.67073
1.92969
2.17884
2.44348
2.63832
3.04154
2.69558
4.87544
-6.34808
-4.446
-4.55168
-4.04765
-3.71903
-3.34725
-2.99968
-2.65655
-2.32391
-1.99977
-1.6842
-1.37647
-1.07594
-0.781897
-0.493611
-0.210402
0.0683463
0.343168
0.614484
0.882616
1.14769
1.40994
1.66868
1.92579
2.17392
2.43633
2.63454
3.02422
2.72778
4.73389
-6.17448
-4.41453
-4.47899
-3.98803
-3.65881
-3.29086
-2.94617
-2.60653
-2.27749
-1.95712
-1.64543
-1.34164
-1.04508
-0.754983
-0.470594
-0.1912
0.0838522
0.355131
0.623096
0.888108
1.15034
1.41005
1.66663
1.92183
2.16892
2.42913
2.63073
3.00669
2.76083
4.58816
-5.99232
-4.38105
-4.4015
-3.9234
-3.59313
-3.22884
-2.88698
-2.55097
-2.22576
-1.90952
-1.60213
-1.30276
-1.01067
-0.72504
-0.445065
-0.169979
0.100919
0.368245
0.632504
0.894104
1.15326
1.41027
1.6646
1.91785
2.1639
2.42195
2.62697
2.98911
2.79467
4.439
-5.80366
-4.34581
-4.31974
-3.85408
-3.52227
-3.16137
-2.82228
-2.48996
-2.1688
-1.85702
-1.55434
-1.25986
-0.972754
-0.692115
-0.41707
-0.146786
0.1195
0.382463
0.642665
0.900562
1.15643
1.41058
1.66258
1.91386
2.15889
2.41487
2.62335
2.9717
2.82911
4.28765
-5.61098
-4.30877
-4.2342
-3.7803
-3.44643
-3.08862
-2.75218
-2.42362
-2.10673
-1.79972
-1.50216
-1.21304
-0.931419
-0.65629
-0.38669
-0.1217
0.139519
0.397711
0.653505
0.907417
1.15978
1.41093
1.66053
1.90985
2.15392
2.40794
2.61994
2.95476
2.86377
4.13612
-5.41702
-4.26949
-4.14536
-3.70233
-3.36586
-3.01079
-2.67689
-2.35214
-2.03971
-1.73779
-1.44575
-1.16246
-0.886823
-0.617718
-0.354069
-0.0948583
0.160845
0.413869
0.664917
0.914571
1.16323
1.41126
1.65841
1.9058
2.14899
2.40124
2.61685
2.93862
2.89808
3.98743
-5.22362
-4.22581
-4.05276
-3.61954
-3.27995
-2.92731
-2.59584
-2.275
-1.96728
-1.67084
-1.3848
-1.10786
-0.838761
-0.576248
-0.319108
-0.0662054
0.183495
0.430916
0.676848
0.921948
1.16668
1.41147
1.65612
1.90163
2.14409
2.3948
2.61418
2.92361
2.93097
3.84614
-5.03271
-4.16958
-3.95409
-3.52852
-3.18548
-2.83491
-2.50591
-2.18926
-1.88675
-1.59641
-1.3171
-1.04732
-0.785602
-0.530521
-0.280709
-0.0348935
0.208086
0.44926
0.689519
0.929607
1.17007
1.41137
1.65343
1.89708
2.13896
2.38853
2.61177
2.91084
2.95826
3.72189
-4.86238
-4.08624
-3.8561
-3.42822
-3.08374
-2.73388
-2.40749
-2.09511
-1.79823
-1.51457
-1.24272
-0.980913
-0.72746
-0.480719
-0.239142
-0.00129212
0.234137
0.468308
0.702228
0.936745
1.1725
1.41003
1.64931
1.89123
2.13239
2.38221
2.60662
2.90603
2.96287
3.63883
64.5506
-48.1805
35.2283
-2.17025
10.4887
6.52301
7.62688
7.22404
7.27954
7.20908
7.1795
7.14254
7.11026
7.07859
7.04786
7.01732
6.98658
6.9549
6.9226
6.88561
6.85598
6.78545
6.84089
6.43772
7.54255
3.57184
16.2495
-21.2119
62.3566
-50.6096
54.8025
-31.9802
24.3316
2.45223
9.06123
6.97175
7.52561
7.27352
7.28249
7.22122
7.18632
7.14821
7.11405
7.08084
7.04859
7.01657
6.98431
6.95109
6.91689
6.87875
6.84379
6.78246
6.79131
6.53904
7.09315
5.00145
11.6191
-10.2938
46.1197
-40.8413
48.9529
-22.1706
19.1206
4.14652
8.67086
7.11126
7.51076
7.2992
7.29108
7.23138
7.19313
7.15351
7.11762
7.08294
7.04927
7.01586
6.98219
6.94748
6.91156
6.8719
6.83358
6.77381
6.76557
6.55384
6.95344
5.39231
9.92224
-5.07355
36.2874
-34.9793
44.1183
-15.3591
16.1479
5.0426
8.45585
7.21342
7.50441
7.32304
7.30007
7.24129
7.19979
7.15866
7.12108
7.08497
7.04993
7.01518
6.98013
6.944
6.90638
6.8652
6.82362
6.76477
6.74165
6.56013
6.85109
5.60756
9.02467
-2.09634
29.46
-30.1343
39.8028
-10.295
14.3177
5.59579
8.33212
7.28921
7.50544
7.3452
7.30988
7.25113
7.2065
7.16378
7.1245
7.08698
7.05058
7.01451
6.9781
6.94055
6.90123
6.85844
6.81373
6.75489
6.7194
6.55902
6.77512
5.73134
8.47032
-0.264082
24.3841
-25.8095
36.0049
-6.54673
13.1916
5.99137
8.25072
7.3576
7.50891
7.36656
7.32019
7.2609
7.21321
7.16883
7.12787
7.08895
7.05121
7.01386
6.97611
6.93715
6.89613
6.85169
6.8039
6.7445
6.69794
6.55544
6.7065
5.81262
8.07357
0.862716
20.6271
-22.0033
32.6638
-3.81934
12.4934
6.31403
8.19541
7.42323
7.51528
7.38684
7.33081
7.27044
7.21981
7.17373
7.13112
7.09084
7.05182
7.01324
6.9742
6.93388
6.8912
6.84504
6.79429
6.73379
6.67754
6.54894
6.64059
5.86767
7.74969
1.56093
17.8934
-18.6549
29.7039
-1.8462
12.011
6.60783
8.15565
7.48828
7.52474
7.40618
7.34147
7.2796
7.22614
7.17837
7.13418
7.0926
7.05239
7.01266
6.97242
6.9308
6.88653
6.83866
6.78506
6.72304
6.65807
6.5393
6.57519
5.90705
7.4546
2.04299
15.9158
-15.6885
27.0627
-0.414076
11.6085
6.8821
8.12566
7.5517
7.53725
7.42464
7.35193
7.2882
7.23206
7.18263
7.13696
7.0942
7.0529
7.01214
6.97082
6.928
6.88224
6.8327
6.77639
6.71248
6.63945
6.52656
6.51137
5.93655
7.17903
2.44521
14.4804
-13.0417
24.6898
0.63803
11.2098
7.12882
8.09997
7.61074
7.55184
7.44204
7.36185
7.29601
7.23735
7.18635
7.13936
7.09556
7.05334
7.0117
6.96945
6.92558
6.87849
6.82735
6.7685
6.70243
6.62187
6.51169
6.45187
5.96167
6.93106
2.84388
13.426
-10.6636
22.5433
1.42867
10.7796
7.33469
8.0724
7.66171
7.5666
7.45781
7.37079
7.30272
7.24177
7.18938
7.14127
7.09662
7.05368
7.01136
6.96839
6.92366
6.87543
6.82287
6.7617
6.69335
6.6059
6.49662
6.40042
5.98864
6.72408
3.27417
12.6337
-8.51256
20.5895
2.04278
10.3092
7.48792
8.03636
7.70055
7.57887
7.47089
7.37808
7.30793
7.24504
7.1915
7.14254
7.0973
7.05389
7.01116
6.96771
6.92239
6.87329
6.81955
6.7564
6.68591
6.59259
6.484
6.36107
6.02409
6.56991
3.74483
12.0183
-6.55456
18.8009
2.53904
9.80535
7.58153
7.98571
7.72342
7.5856
7.47985
7.38284
7.31111
7.2468
7.19247
7.14302
7.09752
7.05396
7.01111
6.9675
6.92191
6.87229
6.81774
6.75312
6.68099
6.58339
6.47691
6.33771
6.07417
6.47556
4.24916
11.521
-4.7621
17.1555
2.95622
9.28214
7.61413
7.91567
7.72708
7.58373
7.48299
7.38403
7.31165
7.24663
7.19203
7.14253
7.09717
7.05384
7.01126
6.96787
6.9224
6.87272
6.81786
6.75249
6.67964
6.58001
6.47843
6.33359
6.14371
6.44243
4.77294
11.103
-3.11328
15.6363
3.31857
8.75582
7.58937
7.82334
7.70922
7.57052
7.47853
7.38048
7.30882
7.24406
7.18987
7.14089
7.09615
7.05351
7.01163
6.96892
6.92405
6.87486
6.82038
6.75522
6.68303
6.58421
6.49128
6.35103
6.23563
6.46684
5.29991
10.74
-1.59077
14.2295
3.64022
8.24129
7.51461
7.70794
7.66867
7.54385
7.46487
7.37102
7.30187
7.23861
7.18567
7.13788
7.09434
7.05292
7.01226
6.97076
6.92708
6.87906
6.82579
6.76207
6.69233
6.59764
6.51762
6.3912
6.3507
6.54144
5.81511
10.4179
-0.180953
12.9245
3.9287
7.75043
7.39933
7.5707
7.60547
7.50235
7.44066
7.35459
7.29007
7.22977
7.17911
7.13331
7.09164
7.05204
7.01319
6.97351
6.93168
6.88562
6.83459
6.77379
6.7086
6.62162
6.55883
6.45411
6.48772
6.65671
6.30665
10.129
1.12685
11.713
4.18749
7.29142
7.25371
7.41445
7.52075
7.44548
7.40503
7.33032
7.27275
7.21708
7.16986
7.12697
7.08793
7.05084
7.01445
6.97727
6.93805
6.89488
6.84726
6.79103
6.73274
6.65705
6.61545
6.5386
6.64384
6.80246
6.76634
9.86997
2.34107
10.588
4.41795
6.86889
7.08749
7.24311
7.41661
7.37349
7.35759
7.2976
7.24938
7.20012
7.15765
7.11868
7.08311
7.04928
7.01608
6.98215
6.94639
6.90711
6.8642
6.81433
6.76533
6.70432
6.68723
6.64258
6.81515
6.96891
7.18954
9.6394
3.46846
9.54422
4.62058
6.48447
6.90926
7.06114
7.29588
7.28739
7.29844
7.25615
7.21962
7.17858
7.14224
7.10829
7.07709
7.04733
7.01811
6.98825
6.95683
6.92254
6.88572
6.84404
6.80668
6.76333
6.77319
6.76323
6.99716
7.14747
7.5746
9.43679
4.51456
8.57687
4.79573
6.13753
6.72598
6.87309
7.1618
7.18871
7.2282
7.20602
7.18331
7.15229
7.12347
7.09566
7.0698
7.04497
7.02055
6.99561
6.96952
6.94134
6.91201
6.8803
6.85672
6.83346
6.87176
6.89731
7.18535
7.33114
7.92217
9.26177
5.48404
7.68186
4.9441
5.82596
6.54295
6.68314
7.0178
7.07942
7.14787
7.14758
7.14053
7.12117
7.10126
7.08074
7.06119
7.04219
7.02343
7.0043
6.9845
6.96359
6.94314
6.92306
6.9151
6.91373
6.981
7.04137
7.3755
7.51463
8.23436
9.11364
6.38101
6.85548
5.06681
5.54677
6.3639
6.49492
6.86724
6.96173
7.05876
7.08148
7.09154
7.08531
7.07561
7.0635
7.05125
7.03896
7.02674
7.01432
7.00181
6.98929
6.97901
6.97204
6.98117
7.00281
7.09871
7.19207
7.564
7.69418
8.51416
8.99127
7.20918
6.09424
5.16545
5.29667
6.19122
6.31131
6.71323
6.8379
6.96238
7.00857
7.03679
7.04494
7.04661
7.04398
7.03998
7.03531
7.03048
7.02566
7.02139
7.01833
7.0194
7.02678
7.05407
7.09919
7.2226
7.34627
7.74795
7.86742
8.76487
8.89304
7.97205
5.3948
5.24197
5.0724
6.02623
6.13447
6.55851
6.71016
6.86037
6.9299
6.97692
7.00038
7.01445
7.02227
7.02744
7.03123
7.03464
7.03828
7.04316
7.05053
7.06398
7.08667
7.13274
7.20125
7.35045
7.50123
7.92516
8.03298
8.98974
8.81701
8.67296
4.7539
5.29853
4.87098
5.86956
5.96588
6.4054
6.58057
6.75436
6.84661
6.91263
6.95208
6.97938
6.99851
7.01368
7.02674
7.03919
7.05211
7.06697
7.08563
7.1123
7.15097
7.21607
7.30733
7.4802
7.65465
8.09418
8.19026
9.19176
8.76099
9.31518
4.16836
5.3374
4.68978
5.7213
5.80641
6.25573
6.45097
6.64594
6.75986
6.84476
6.90057
6.94174
6.97289
6.9988
7.02188
7.0441
7.06703
7.09263
7.12331
7.16384
7.21887
7.30286
7.41586
7.60999
7.80466
8.25411
8.33914
9.37354
8.7227
9.90188
3.63505
5.36082
4.52661
5.5813
5.65647
6.11091
6.32294
6.53657
6.67083
6.77414
6.84643
6.90188
6.94564
6.98293
7.01668
7.04933
7.08292
7.11989
7.16318
7.218
7.28952
7.39196
7.52536
7.73826
7.94985
8.40453
8.47977
9.53728
8.69988
10.4362
3.15091
5.37095
4.37962
5.44927
5.51615
5.97196
6.19778
6.42756
6.58062
6.70163
6.79026
6.86023
6.91703
6.96621
7.01118
7.05484
7.09965
7.14852
7.20483
7.27418
7.36207
7.48226
7.63454
7.86369
8.0892
8.54536
8.61243
9.68483
8.69036
10.9212
2.71294
5.36977
4.24728
5.32489
5.38527
5.83958
6.07651
6.32004
6.49025
6.62805
6.73268
6.81722
6.88732
6.94879
7.00544
7.06056
7.11705
7.17821
7.24783
7.33176
7.43569
7.57272
7.74223
7.98526
8.22202
8.67674
8.73743
9.8177
8.69215
11.36
2.31822
5.35908
4.12834
5.20785
5.26355
5.71417
5.95993
6.21498
6.40065
6.55419
6.67431
6.77328
6.8568
6.93083
6.9995
7.06645
7.13496
7.20868
7.29174
7.39014
7.50959
7.66243
7.84749
8.10215