/*--------------------------------*- C++ -*----------------------------------*\
| =========                 |                                                 |
| \\      /  F ield         | OpenFOAM: The Open Source CFD Toolbox           |
|  \\    /   O peration     | Version:  2.4.0                                 |
|   \\  /    A nd           | Web:      www.OpenFOAM.org                      |
|    \\/     M anipulation  |                                                 |
\*---------------------------------------------------------------------------*/
FoamFile
{
    version     2.0;
    format      ascii;
    class       surfaceScalarField;
    location    "0.02";
    object      phi;
}
// * * * * * * * * * * * * * * * * * * * * * * * * * * * * * * * * * * * * * //

dimensions      [0 3 -1 0 0 0 0];

internalField   nonuniform List<scalar> 
14230
(
5.85641e-15
-3.89068e-14
-1.14536e-13
1.20392e-13
1.17572e-13
-2.32108e-13
-1.30818e-13
2.48391e-13
-2.79726e-14
-1.02846e-13
-9.16341e-14
6.36609e-14
-7.42714e-14
-1.73628e-14
-8.9913e-14
1.56418e-14
-8.91141e-14
-7.98528e-16
-9.14479e-14
2.33406e-15
-9.00567e-14
-1.39099e-15
-8.75248e-14
-2.53202e-15
-8.33033e-14
-4.22163e-15
-7.78732e-14
-5.43017e-15
-7.14106e-14
-6.46268e-15
-6.41941e-14
-7.21645e-15
-5.64927e-14
-7.70126e-15
-4.85403e-14
-7.95197e-15
-4.06451e-14
-7.8945e-15
-3.32119e-14
-7.4329e-15
-2.466e-14
-8.55329e-15
-2.58812e-14
1.21674e-15
1.13219e-14
-3.72106e-14
-9.80348e-14
1.09347e-13
2.68126e-13
-3.6617e-13
-8.78748e-13
1.14687e-12
2.29517e-12
-3.17393e-12
-3.51858e-12
5.81375e-12
1.70479e-12
-5.22337e-12
3.70007e-12
-1.99529e-12
-5.59925e-14
-1.05761e-13
-2.06066e-13
2.70465e-13
5.33233e-14
-4.91498e-13
-2.10366e-13
5.1208e-13
-1.82826e-13
-1.30386e-13
-2.66208e-13
1.47042e-13
-2.76833e-13
-6.73787e-15
-3.05359e-13
4.4168e-14
-3.16902e-13
1.07443e-14
-3.24389e-13
9.82175e-15
-3.24214e-13
-1.56659e-15
-3.18183e-13
-8.56345e-15
-3.0665e-13
-1.57542e-14
-2.90443e-13
-2.16368e-14
-2.70372e-13
-2.65339e-14
-2.4729e-13
-3.02986e-14
-2.22135e-13
-3.28568e-14
-1.95722e-13
-3.43647e-14
-1.69229e-13
-3.43867e-14
-1.43047e-13
-3.3614e-14
-1.18533e-13
-3.30653e-14
-9.91921e-14
-1.81226e-14
-6.39829e-14
-7.24188e-14
-1.21872e-13
1.67236e-13
1.30056e-13
-6.18099e-13
-5.23792e-13
1.80071e-12
1.58004e-12
-5.27776e-12
-3.75285e-12
1.11466e-11
1.60295e-12
-1.05792e-11
9.40831e-12
-4.10528e-12
-1.6793e-13
-1.76086e-13
-3.18931e-13
4.21466e-13
-1.09163e-13
-7.01266e-13
-2.78058e-13
6.80976e-13
-3.57897e-13
-5.05482e-14
-4.58504e-13
2.4765e-13
-5.13788e-13
4.85462e-14
-5.59731e-13
9.01115e-14
-5.89691e-13
4.07042e-14
-6.06732e-13
2.68631e-14
-6.11376e-13
3.07694e-15
-6.04482e-13
-1.54571e-14
-5.87265e-13
-3.29717e-14
-5.60912e-13
-4.79894e-14
-5.26857e-13
-6.0589e-14
-4.86577e-13
-7.05792e-14
-4.41712e-13
-7.77212e-14
-3.93808e-13
-8.22697e-14
-3.44893e-13
-8.33013e-14
-2.95728e-13
-8.27781e-14
-2.50701e-13
-7.80893e-14
-2.04217e-13
-6.46043e-14
-1.76442e-13
-1.00192e-13
-1.29212e-13
1.20008e-13
-1.04077e-13
-6.43234e-13
-3.53392e-14
1.73197e-12
-1.17964e-13
-5.19514e-12
-2.43895e-12
1.34676e-11
3.97921e-13
-1.3416e-11
1.57763e-11
-5.97006e-12
-3.14807e-13
-2.41787e-13
-4.85771e-13
5.9243e-13
-3.27853e-13
-8.59183e-13
-4.13849e-13
7.66972e-13
-5.46149e-13
8.17513e-14
-6.83379e-13
3.84881e-13
-7.84055e-13
1.49222e-13
-8.58424e-13
1.64481e-13
-9.11086e-13
9.33662e-14
-9.42936e-13
5.87131e-14
-9.5591e-13
1.60503e-14
-9.50971e-13
-2.03958e-14
-9.29795e-13
-5.41482e-14
-8.94054e-13
-8.37304e-14
-8.45765e-13
-1.08877e-13
-7.87088e-13
-1.29257e-13
-7.2041e-13
-1.444e-13
-6.48151e-13
-1.54529e-13
-5.73125e-13
-1.58328e-13
-4.9737e-13
-1.58532e-13
-4.25608e-13
-1.49849e-13
-3.5418e-13
-1.36029e-13
-3.05262e-13
-1.49107e-13
-2.20183e-13
3.49294e-14
-2.44199e-13
-6.19217e-13
-1.17824e-13
1.6056e-12
-1.08565e-12
-4.22731e-12
-1.60044e-12
1.39824e-11
-1.11101e-12
-1.39055e-11
2.28866e-11
-8.22135e-12
-4.94371e-13
-2.96337e-13
-6.98542e-13
7.96602e-13
-6.08216e-13
-9.49509e-13
-6.31525e-13
7.9028e-13
-7.76551e-13
2.26778e-13
-9.47078e-13
5.55408e-13
-1.09436e-12
2.96509e-13
-1.20466e-12
2.74779e-13
-1.28548e-12
1.74182e-13
-1.33712e-12
1.10355e-13
-1.3623e-12
4.12281e-14
-1.36228e-12
-2.04178e-14
-1.33909e-12
-7.73319e-14
-1.29491e-12
-1.27919e-13
-1.23231e-12
-1.71476e-13
-1.15417e-12
-2.07395e-13
-1.06369e-12
-2.34883e-13
-9.6425e-13
-2.53965e-13
-8.59607e-13
-2.6297e-13
-7.53219e-13
-2.6492e-13
-6.50393e-13
-2.52673e-13
-5.50257e-13
-2.36163e-13
-4.74507e-13
-2.24855e-13
-3.70587e-13
-6.89888e-14
-4.43967e-13
-5.45837e-13
-4.09778e-13
1.57141e-12
-1.60781e-12
-3.02928e-12
-1.26671e-12
1.36413e-11
-3.02722e-12
-1.2145e-11
3.06281e-11
-1.07686e-11
-7.04698e-13
-3.35497e-13
-9.51028e-13
1.04293e-12
-9.4673e-13
-9.53807e-13
-9.37155e-13
7.80704e-13
-1.07203e-12
3.61653e-13
-1.26313e-12
7.46512e-13
-1.45327e-12
4.86644e-13
-1.60379e-12
4.25301e-13
-1.71771e-12
2.88104e-13
-1.79393e-12
1.86572e-13
-1.83529e-12
8.25914e-14
-1.8433e-12
-1.2412e-14
-1.82026e-12
-1.00368e-13
-1.76878e-12
-1.79401e-13
-1.692e-12
-2.48251e-13
-1.59354e-12
-3.05858e-13
-1.47745e-12
-3.50976e-13
-1.34818e-12
-3.83237e-13
-1.21058e-12
-4.00562e-13
-1.06971e-12
-4.05794e-13
-9.31949e-13
-3.90433e-13
-8.00128e-13
-3.67981e-13
-6.96899e-13
-3.2808e-13
-5.91524e-13
-1.74362e-13
-7.11908e-13
-4.25452e-13
-7.56726e-13
1.61623e-12
-1.92837e-12
-1.85764e-12
-1.50996e-12
1.32229e-11
-5.3538e-12
-8.30112e-12
3.88532e-11
-1.35789e-11
-9.45083e-13
-3.56846e-13
-1.23801e-12
1.33586e-12
-1.33541e-12
-8.56403e-13
-1.32919e-12
7.74484e-13
-1.44812e-12
4.80587e-13
-1.64651e-12
9.44894e-13
-1.87153e-12
7.1167e-13
-2.06288e-12
6.1665e-13
-2.21345e-12
4.38671e-13
-2.31848e-12
2.91604e-13
-2.37992e-12
1.44032e-13
-2.39915e-12
6.82091e-15
-2.37861e-12
-1.20914e-13
-2.32123e-12
-2.36783e-13
-2.23069e-12
-3.38792e-13
-2.11132e-12
-4.25224e-13
-1.9681e-12
-4.94194e-13
-1.80664e-12
-5.44703e-13
-1.63309e-12
-5.74108e-13
-1.4543e-12
-5.84585e-13
-1.27847e-12
-5.66265e-13
-1.113e-12
-5.33444e-13
-9.84342e-13
-4.56737e-13
-8.85037e-13
-2.73664e-13
-1.03389e-12
-2.76595e-13
-1.1217e-12
1.70403e-12
-2.27182e-12
-7.07516e-13
-2.38242e-12
1.33335e-11
-8.05779e-12
-2.62576e-12
4.74109e-11
-1.66155e-11
-1.21595e-12
-3.59158e-13
-1.55585e-12
1.67576e-12
-1.76538e-12
-6.46874e-13
-1.79986e-12
8.08972e-13
-1.91231e-12
5.93038e-13
-2.11e-12
1.14258e-12
-2.36059e-12
9.62259e-13
-2.59023e-12
8.46293e-13
-2.77912e-12
6.27562e-13
-2.91635e-12
4.28829e-13
-3.00147e-12
2.29159e-13
-3.03514e-12
4.04918e-14
-3.01961e-12
-1.36448e-13
-2.958e-12
-2.9839e-13
-2.85444e-12
-4.4235e-13
-2.71398e-12
-5.65684e-13
-2.54256e-12
-6.65623e-13
-2.34701e-12
-7.4025e-13
-2.13504e-12
-7.86078e-13
-1.91557e-12
-8.04054e-13
-1.69936e-12
-7.82474e-13
-1.49918e-12
-7.33626e-13
-1.34641e-12
-6.09504e-13
-1.25174e-12
-3.68328e-13
-1.40949e-12
-1.18848e-13
-1.54816e-12
1.84271e-12
-2.83691e-12
5.81229e-13
-3.89243e-12
1.4389e-11
-1.10966e-11
4.57837e-12
5.61466e-11
-1.98323e-11
-1.51863e-12
-3.41853e-13
-1.90293e-12
2.06005e-12
-2.22877e-12
-3.21035e-13
-2.33785e-12
9.18055e-13
-2.46455e-12
7.19737e-13
-2.66199e-12
1.34002e-12
-2.9307e-12
1.23097e-12
-3.19442e-12
1.11001e-12
-3.42159e-12
8.5473e-13
-3.59336e-12
6.00606e-13
-3.70537e-12
3.41166e-13
-3.75664e-12
9.17622e-14
-3.74881e-12
-1.44277e-13
-3.68498e-12
-3.62228e-13
-3.56958e-12
-5.57744e-13
-3.40835e-12
-7.26913e-13
-3.20821e-12
-8.65762e-13
-2.97737e-12
-9.71094e-13
-2.72527e-12
-1.03818e-12
-2.46328e-12
-1.06605e-12
-2.20536e-12
-1.04039e-12
-1.97e-12
-9.68989e-13
-1.79347e-12
-7.86031e-13
-1.7001e-12
-4.6169e-13
-1.86754e-12
4.85856e-14
-2.12716e-12
2.10234e-12
-3.77946e-12
2.23353e-12
-6.01242e-12
1.6622e-11
-1.44177e-11
1.29836e-11
6.49083e-11
-2.31793e-11
-1.85513e-12
-3.04529e-13
-2.27954e-12
2.48447e-12
-2.71996e-12
1.19381e-13
-2.93085e-12
1.12894e-12
-3.0989e-12
8.87791e-13
-3.30554e-12
1.54666e-12
-3.58943e-12
1.51486e-12
-3.88322e-12
1.4038e-12
-4.14757e-12
1.11908e-12
-4.35537e-12
8.08402e-13
-4.49701e-12
4.82805e-13
-4.56897e-12
1.63728e-13
-4.57174e-12
-1.41507e-13
-4.50806e-12
-4.25916e-13
-4.38254e-12
-6.83262e-13
-4.20152e-12
-9.0793e-13
-3.97295e-12
-1.09433e-12
-3.7065e-12
-1.23754e-12
-3.41363e-12
-1.33105e-12
-3.10849e-12
-1.3712e-12
-2.80884e-12
-1.34004e-12
-2.53908e-12
-1.23875e-12
-2.34085e-12
-9.84258e-13
-2.25392e-12
-5.4862e-13
-2.46546e-12
2.60132e-13
-2.9677e-12
2.60458e-12
-5.20357e-12
4.46939e-12
-8.6867e-12
2.01051e-11
-1.79618e-11
2.22587e-11
7.3553e-11
-2.66066e-11
-2.2278e-12
-2.46625e-13
-2.68752e-12
2.94418e-12
-3.23606e-12
6.67923e-13
-3.56766e-12
1.46054e-12
-3.8058e-12
1.12593e-12
-4.03862e-12
1.77949e-12
-4.34071e-12
1.81695e-12
-4.66263e-12
1.72572e-12
-4.96303e-12
1.41948e-12
-5.20781e-12
1.05318e-12
-5.38152e-12
6.56514e-13
-5.47726e-12
2.5947e-13
-5.49377e-12
-1.24999e-13
-5.43308e-12
-4.86606e-13
-5.2998e-12
-8.16543e-13
-5.10079e-12
-1.10694e-12
-4.84506e-12
-1.35006e-12
-4.54389e-12
-1.53871e-12
-4.21101e-12
-1.66392e-12
-3.8638e-12
-1.71841e-12
-3.52445e-12
-1.67939e-12
-3.22402e-12
-1.53918e-12
-3.01237e-12
-1.1959e-12
-2.95417e-12
-6.0682e-13
-3.27967e-12
5.85638e-13
-4.17226e-12
3.49717e-12
-7.16091e-12
7.45804e-12
-1.18393e-11
2.47835e-11
-2.16665e-11
3.20859e-11
8.19521e-11
-3.00656e-11
-2.63917e-12
-1.67198e-13
-3.1297e-12
3.43471e-12
-3.77681e-12
1.31504e-12
-4.23954e-12
1.92327e-12
-4.57423e-12
1.46062e-12
-4.85522e-12
2.06049e-12
-5.18462e-12
2.14635e-12
-5.53613e-12
2.07723e-12
-5.87253e-12
1.75588e-12
-6.15534e-12
1.33599e-12
-6.3635e-12
8.64675e-13
-6.48621e-12
3.82183e-13
-6.51995e-12
-9.12666e-14
-6.46567e-12
-5.40884e-13
-6.32777e-12
-9.54445e-13
-6.11357e-12
-1.32113e-12
-5.83317e-12
-1.63046e-12
-5.49966e-12
-1.87223e-12
-5.12939e-12
-2.03419e-12
-4.74354e-12
-2.10427e-12
-4.36973e-12
-2.05319e-12
-4.04767e-12
-1.86124e-12
-3.84157e-12
-1.402e-12
-3.85561e-12
-5.92778e-13
-4.392e-12
1.12203e-12
-5.81975e-12
4.92493e-12
-9.65579e-12
1.12941e-11
-1.53817e-11
3.05094e-11
-2.54698e-11
4.2174e-11
8.99935e-11
-3.35112e-11
-3.09169e-12
-6.48184e-14
-3.60947e-12
3.95249e-12
-4.34415e-12
2.04972e-12
-4.94081e-12
2.51993e-12
-5.3936e-12
1.9134e-12
-5.74677e-12
2.41366e-12
-6.11782e-12
2.51739e-12
-6.50446e-12
2.46388e-12
-6.87881e-12
2.13023e-12
-7.20145e-12
1.65863e-12
-7.44675e-12
1.10997e-12
-7.59993e-12
5.35367e-13
-7.65484e-12
-3.63538e-14
-7.61108e-12
-5.84645e-13
-7.47263e-12
-1.0929e-12
-7.24722e-12
-1.54654e-12
-6.94614e-12
-1.93153e-12
-6.58451e-12
-2.23386e-12
-6.18184e-12
-2.43687e-12
-5.76391e-12
-2.52219e-12
-5.36548e-12
-2.45162e-12
-5.0385e-12
-2.18822e-12
-4.87023e-12
-1.57027e-12
-5.0197e-12
-4.43306e-13
-5.87631e-12
1.97865e-12
-7.95608e-12
7.00469e-12
-1.26536e-11
1.59916e-11
-1.922e-11
3.70759e-11
-2.93132e-11
5.22672e-11
9.75829e-11
-3.69026e-11
-3.58764e-12
6.24537e-14
-4.13034e-12
4.49519e-12
-4.94156e-12
2.86094e-12
-5.66893e-12
3.2473e-12
-6.25507e-12
2.49954e-12
-6.70368e-12
2.86227e-12
-7.1343e-12
2.94801e-12
-7.56566e-12
2.89524e-12
-7.98257e-12
2.54713e-12
-8.34816e-12
2.02422e-12
-8.63398e-12
1.3958e-12
-8.82168e-12
7.23065e-13
-8.90236e-12
4.43252e-14
-8.87404e-12
-6.12963e-13
-8.74018e-12
-1.22676e-12
-8.5089e-12
-1.77782e-12
-8.19285e-12
-2.24759e-12
-7.80954e-12
-2.61717e-12
-7.38229e-12
-2.86411e-12
-6.94282e-12
-2.96166e-12
-6.53544e-12
-2.859e-12
-6.22936e-12
-2.49431e-12
-6.14455e-12
-1.65507e-12
-6.506e-12
-8.1861e-14
-7.78783e-12
3.26048e-12
-1.05914e-11
9.80824e-12
-1.60906e-11
2.14907e-11
-2.32611e-11
4.42464e-11
-3.31427e-11
6.21488e-11
1.04644e-10
-4.02036e-11
-4.12905e-12
2.17029e-13
-4.69563e-12
5.06177e-12
-5.57339e-12
3.7387e-12
-6.42407e-12
4.09797e-12
-7.15228e-12
3.22775e-12
-7.7167e-12
3.42669e-12
-8.22649e-12
3.4578e-12
-8.71552e-12
3.38427e-12
-9.18241e-12
3.01402e-12
-9.59587e-12
2.43768e-12
-9.92668e-12
1.72661e-12
-1.01537e-11
9.50109e-13
-1.02655e-11
1.56147e-13
-1.02585e-11
-6.19963e-13
-1.01356e-11
-1.34971e-12
-9.90533e-12
-2.00809e-12
-9.58196e-12
-2.57096e-12
-9.18591e-12
-3.01322e-12
-8.74527e-12
-3.30476e-12
-8.29935e-12
-3.40758e-12
-7.90524e-12
-3.25311e-12
-7.65508e-12
-2.74448e-12
-7.70986e-12
-1.60029e-12
-8.36385e-12
5.72131e-13
-1.01564e-11
5.05302e-12
-1.37023e-11
1.33542e-11
-1.98844e-11
2.76728e-11
-2.74171e-11
5.17791e-11
-3.69106e-11
7.16424e-11
1.11116e-10
-4.33832e-11
-4.71765e-12
4.01722e-13
-5.30824e-12
5.65236e-12
-6.24427e-12
4.67473e-12
-7.20847e-12
5.06217e-12
-8.08152e-12
4.10081e-12
-8.77784e-12
4.12301e-12
-9.3862e-12
4.06615e-12
-9.94816e-12
3.94623e-12
-1.04751e-11
3.54095e-12
-1.09433e-11
2.90592e-12
-1.13249e-11
2.1082e-12
-1.15971e-11
1.22233e-12
-1.17464e-11
3.05425e-13
-1.17677e-11
-5.98712e-13
-1.16633e-11
-1.45409e-12
-1.14425e-11
-2.22883e-12
-1.11216e-11
-2.89191e-12
-1.07245e-11
-3.41033e-12
-1.02852e-11
-3.74402e-12
-9.85281e-12
-3.83999e-12
-9.50066e-12
-3.60526e-12
-9.34912e-12
-2.89601e-12
-9.60504e-12
-1.34437e-12
-1.0626e-11
1.59304e-12
-1.29839e-11
7.41097e-12
-1.72377e-11
1.7608e-11
-2.39432e-11
3.43783e-11
-3.16083e-11
5.94442e-11
-4.05756e-11
8.06097e-11
1.16955e-10
-4.64147e-11
-5.35489e-12
6.1968e-13
-5.97059e-12
6.26807e-12
-6.9586e-12
5.66274e-12
-8.02572e-12
6.12929e-12
-9.04155e-12
5.11664e-12
-9.88096e-12
4.96243e-12
-1.06055e-11
4.79071e-12
-1.12567e-11
4.59744e-12
-1.18559e-11
4.14011e-12
-1.23877e-11
3.43778e-12
-1.28274e-11
2.54782e-12
-1.31517e-11
1.5467e-12
-1.33458e-11
4.99513e-13
-1.34034e-11
-5.41147e-13
-1.33266e-11
-1.53092e-12
-1.31255e-11
-2.42985e-12
-1.2819e-11
-3.19849e-12
-1.24352e-11
-3.79405e-12
-1.20157e-11
-4.16353e-12
-1.16214e-11
-4.23432e-12
-1.13454e-11
-3.88129e-12
-1.13399e-11
-2.90148e-12
-1.18576e-11
-8.26686e-13
-1.33043e-11
3.03979e-12
-1.62455e-11
1.03521e-11
-2.11262e-11
2.24887e-11
-2.81736e-11
4.14257e-11
-3.57654e-11
6.7036e-11
-4.41024e-11
8.89466e-11
1.22129e-10
-4.92756e-11
-6.0419e-12
8.74319e-13
-6.68455e-12
6.91072e-12
-7.72025e-12
6.69844e-12
-8.88004e-12
7.28908e-12
-1.00331e-11
6.26968e-12
-1.10219e-11
5.95125e-12
-1.18774e-11
5.64623e-12
-1.2634e-11
5.35403e-12
-1.33189e-11
4.82497e-12
-1.39249e-11
4.04374e-12
-1.44312e-11
3.0542e-12
-1.48159e-11
1.93137e-12
-1.50633e-11
7.46851e-13
-1.51663e-11
-4.38059e-13
-1.51274e-11
-1.56985e-12
-1.4958e-11
-2.59924e-12
-1.46798e-11
-3.47671e-12
-1.43266e-11
-4.14726e-12
-1.39485e-11
-4.5416e-12
-1.36207e-11
-4.56216e-12
-1.34585e-11
-4.04346e-12
-1.36474e-11
-2.71261e-12
-1.44801e-11
6.02778e-15
-1.63892e-11
4.94887e-12
-1.98932e-11
1.38561e-11
-2.52839e-11
2.78794e-11
-3.24861e-11
4.86279e-11
-3.98294e-11
7.43793e-11
-4.74614e-11
9.65786e-11
1.26614e-10
-5.19469e-11
-6.77955e-12
1.16928e-12
-7.45147e-12
7.58264e-12
-8.53237e-12
7.77934e-12
-9.77571e-12
8.53242e-12
-1.10582e-11
7.55221e-12
-1.21985e-11
7.09147e-12
-1.31962e-11
6.64397e-12
-1.40731e-11
6.23088e-12
-1.48576e-11
5.60954e-12
-1.55494e-11
4.7355e-12
-1.61325e-11
3.63727e-12
-1.65867e-11
2.38564e-12
-1.68968e-11
1.05692e-12
-1.70557e-11
-2.7915e-13
-1.70663e-11
-1.55928e-12
-1.69419e-11
-2.72361e-12
-1.6708e-11
-3.71062e-12
-1.64047e-11
-4.45057e-12
-1.60923e-11
-4.85395e-12
-1.58619e-11
-4.7926e-12
-1.58523e-11
-4.05301e-12
-1.62803e-11
-2.28468e-12
-1.74683e-11
1.19402e-12
-1.98499e-11
7.33045e-12
-2.38616e-11
1.78679e-11
-2.96218e-11
3.36396e-11
-3.67996e-11
5.58057e-11
-4.37517e-11
8.13314e-11
-5.06281e-11
1.03455e-10
1.30399e-10
-5.44125e-11
-7.56841e-12
1.50841e-12
-8.27223e-12
8.28645e-12
-9.39728e-12
8.9044e-12
-1.07166e-11
9.85173e-12
-1.21198e-11
8.95546e-12
-1.34099e-11
8.3815e-12
-1.45574e-11
7.79147e-12
-1.55673e-11
7.24079e-12
-1.64652e-11
6.50744e-12
-1.7255e-11
5.52537e-12
-1.79257e-11
4.30794e-12
-1.84598e-11
2.91971e-12
-1.8843e-11
1.44012e-12
-1.9069e-11
-5.31641e-14
-1.91417e-11
-1.48653e-12
-1.90771e-11
-2.78823e-12
-1.89049e-11
-3.88281e-12
-1.86726e-11
-4.68287e-12
-1.84519e-11
-5.07466e-12
-1.83505e-11
-4.894e-12
-1.85305e-11
-3.87302e-12
-1.92346e-11
-1.58052e-12
-2.0801e-11
2.76041e-12
-2.36381e-11
1.01675e-11
-2.8074e-11
2.23037e-11
-3.40519e-11
3.96175e-11
-4.1043e-11
6.27969e-11
-4.74927e-11
8.77811e-11
-5.35817e-11
1.09544e-10
1.33475e-10
-5.66585e-11
-8.40873e-12
1.89578e-12
-9.14721e-12
9.02493e-12
-1.03165e-11
1.00737e-11
-1.17058e-11
1.12411e-11
-1.32209e-11
1.04706e-11
-1.46565e-11
9.81708e-12
-1.59577e-11
9.09271e-12
-1.71109e-11
8.39394e-12
-1.81346e-11
7.53119e-12
-1.90349e-11
6.42566e-12
-1.98046e-11
5.0776e-12
-2.04293e-11
3.54449e-12
-2.08968e-11
1.90754e-12
-2.12018e-11
2.51893e-13
-2.13503e-11
-1.33809e-12
-2.1361e-11
-2.77748e-12
-2.1269e-11
-3.97482e-12
-2.11297e-11
-4.82214e-12
-2.10269e-11
-5.1775e-12
-2.1085e-11
-4.83593e-12
-2.14867e-11
-3.47131e-12
-2.24932e-11
-5.73991e-13
-2.44418e-11
4.70898e-12
-2.76921e-11
1.34179e-11
-3.24479e-11
2.70596e-11
-3.84913e-11
4.56609e-11
-4.51561e-11
6.94616e-11
-5.10202e-11
9.36453e-11
-5.63046e-11
1.14828e-10
1.35843e-10
-5.86725e-11
-9.30038e-12
2.33569e-12
-1.00764e-11
9.80095e-12
-1.12907e-11
1.12879e-11
-1.27456e-11
1.2696e-11
-1.43641e-11
1.20891e-11
-1.59392e-11
1.13922e-11
-1.7395e-11
1.05485e-11
-1.86987e-11
9.69766e-12
-1.98591e-11
8.69161e-12
-2.08815e-11
7.44804e-12
-2.17616e-11
5.95769e-12
-2.24883e-11
4.27118e-12
-2.30514e-11
2.4707e-12
-2.3448e-11
6.48458e-13
-2.36861e-11
-1.09999e-12
-2.37883e-11
-2.67527e-12
-2.37953e-11
-3.96788e-12
-2.3771e-11
-4.84644e-12
-2.38112e-11
-5.13729e-12
-2.40559e-11
-4.59122e-12
-2.47042e-11
-2.82296e-12
-2.6026e-11
7.47763e-13
-2.83409e-11
7.02387e-12
-3.1941e-11
1.7018e-11
-3.69006e-11
3.20191e-11
-4.28655e-11
5.16259e-11
-4.90889e-11
7.5685e-11
-5.43086e-11
9.8865e-11
-5.87816e-11
1.19301e-10
1.37506e-10
-6.04437e-11
-1.02428e-11
2.83272e-12
-1.10593e-11
1.06174e-11
-1.23198e-11
1.25485e-11
-1.38372e-11
1.42134e-11
-1.55515e-11
1.38033e-11
-1.72589e-11
1.30996e-11
-1.88675e-11
1.21571e-11
-2.03262e-11
1.11564e-11
-2.1632e-11
9.9974e-12
-2.2787e-11
8.60304e-12
-2.37885e-11
6.95918e-12
-2.46282e-11
5.11088e-12
-2.52986e-11
3.14114e-12
-2.57992e-11
1.14904e-12
-2.6141e-11
-7.58194e-13
-2.63507e-11
-2.46557e-12
-2.6475e-11
-3.84359e-12
-2.65865e-11
-4.73491e-12
-2.67925e-11
-4.93136e-12
-2.72459e-11
-4.13779e-12
-2.81566e-11
-1.91228e-12
-2.9792e-11
2.38319e-12
-3.24392e-11
9.67102e-12
-3.63096e-11
2.08884e-11
-4.13528e-11
3.70623e-11
-4.71093e-11
5.73824e-11
-5.2801e-11
8.13766e-11
-5.73367e-11
1.03401e-10
-6.09992e-11
1.22964e-10
1.38468e-10
-6.1962e-11
-1.12349e-11
3.39179e-12
-1.20948e-11
1.14774e-11
-1.34032e-11
1.38568e-11
-1.49809e-11
1.57911e-11
-1.67842e-11
1.56067e-11
-1.86163e-11
1.49317e-11
-2.03737e-11
1.39145e-11
-2.19891e-11
1.27718e-11
-2.34466e-11
1.14549e-11
-2.47432e-11
9.89959e-12
-2.58761e-11
8.09209e-12
-2.68394e-11
6.07416e-12
-2.76283e-11
3.93004e-12
-2.8245e-11
1.76582e-12
-2.87041e-11
-2.99134e-13
-2.90366e-11
-2.13305e-12
-2.92955e-11
-3.58473e-12
-2.95616e-11
-4.46882e-12
-2.9952e-11
-4.54091e-12
-3.06296e-11
-3.46021e-12
-3.18079e-11
-7.3402e-13
-3.37411e-11
4.31645e-12
-3.66709e-11
1.26008e-11
-4.0722e-11
2.49395e-11
-4.57313e-11
4.20717e-11
-5.11672e-11
6.28183e-11
-5.62592e-11
8.64686e-11
-6.00868e-11
1.07228e-10
-6.29452e-11
1.25822e-10
1.38741e-10
-6.3218e-11
-1.22748e-11
4.01818e-12
-1.31814e-11
1.23839e-11
-1.45392e-11
1.52146e-11
-1.61758e-11
1.74277e-11
-1.80623e-11
1.74932e-11
-2.00113e-11
1.68807e-11
-2.1912e-11
1.58151e-11
-2.36833e-11
1.45432e-11
-2.52963e-11
1.30679e-11
-2.67413e-11
1.13446e-11
-2.80143e-11
9.36505e-12
-2.91108e-11
7.1706e-12
-3.00285e-11
4.84779e-12
-3.07728e-11
2.51016e-12
-3.13618e-11
2.89825e-13
-3.18312e-11
-1.66369e-12
-3.22398e-11
-3.17609e-12
-3.2676e-11
-4.0326e-12
-3.32648e-11
-3.95211e-12
-3.41744e-11
-2.55069e-12
-3.56146e-11
7.06246e-13
-3.78167e-11
6.51854e-12
-4.09677e-11
1.57518e-11
-4.51049e-11
2.90767e-11
-4.99709e-11
4.69376e-11
-5.49928e-11
6.78402e-11
-5.94368e-11
9.09126e-11
-6.25435e-11
1.10335e-10
-6.46083e-11
1.27887e-10
1.38336e-10
-6.42029e-11
-1.33601e-11
4.71757e-12
-1.43167e-11
1.33405e-11
-1.57255e-11
1.66234e-11
-1.742e-11
1.91223e-11
-1.93847e-11
1.94579e-11
-2.14429e-11
1.89389e-11
-2.348e-11
1.78522e-11
-2.54043e-11
1.64674e-11
-2.71741e-11
1.48378e-11
-2.87724e-11
1.29429e-11
-3.01923e-11
1.0785e-11
-3.14301e-11
8.40837e-12
-3.24858e-11
5.90354e-12
-3.33679e-11
3.3922e-12
-3.40979e-11
1.01984e-12
-3.47162e-11
-1.04539e-12
-3.52871e-11
-2.60514e-12
-3.59051e-11
-3.41462e-12
-3.67002e-11
-3.15697e-12
-3.78413e-11
-1.40967e-12
-3.95274e-11
2.3924e-12
-4.19581e-11
8.94924e-12
-4.52605e-11
1.90542e-11
-4.93899e-11
3.32061e-11
-5.40142e-11
5.1562e-11
-5.85476e-11
7.23735e-11
-6.23117e-11
9.46767e-11
-6.46933e-11
1.12717e-10
-6.59777e-11
1.29171e-10
1.37267e-10
-6.49085e-11
-1.44872e-11
5.49612e-12
-1.54974e-11
1.43507e-11
-1.69589e-11
1.80849e-11
-1.87107e-11
2.08741e-11
-2.0749e-11
2.14962e-11
-2.29088e-11
2.10987e-11
-2.50748e-11
2.00182e-11
-2.7147e-11
1.85396e-11
-2.90727e-11
1.67635e-11
-3.08266e-11
1.46968e-11
-3.23983e-11
1.23566e-11
-3.37838e-11
9.79386e-12
-3.4985e-11
7.10479e-12
-3.60132e-11
4.42035e-12
-3.68934e-11
1.90011e-12
-3.76703e-11
-2.68552e-13
-3.84127e-11
-1.86273e-12
-3.92194e-11
-2.60795e-12
-4.02225e-11
-2.15388e-12
-4.15862e-11
-4.58845e-14
-4.34926e-11
4.29874e-12
-4.61029e-11
1.15595e-11
-4.94829e-11
2.24342e-11
-5.35144e-11
3.72377e-11
-5.78122e-11
5.58597e-11
-6.17998e-11
7.63612e-11
-6.48649e-11
9.77418e-11
-6.65235e-11
1.14375e-10
-6.70435e-11
1.29691e-10
1.3555e-10
-6.53269e-11
-1.56514e-11
6.3604e-12
-1.67193e-11
1.54186e-11
-1.82353e-11
1.96009e-11
-2.00438e-11
2.26825e-11
-2.21514e-11
2.36038e-11
-2.44056e-11
2.33529e-11
-2.66921e-11
2.23047e-11
-2.89057e-11
2.07532e-11
-3.09839e-11
1.88417e-11
-3.28934e-11
1.66063e-11
-3.46194e-11
1.40826e-11
-3.61569e-11
1.13314e-11
-3.75091e-11
8.45703e-12
-3.86897e-11
5.60093e-12
-3.9727e-11
2.93739e-12
-4.0669e-11
6.73439e-13
-4.15881e-11
-9.43567e-13
-4.25854e-11
-1.61068e-12
-4.37915e-11
-9.47765e-13
-4.53615e-11
1.52409e-12
-4.74542e-11
6.39142e-12
-5.01889e-11
1.42942e-11
-5.35717e-11
2.58171e-11
-5.74226e-11
4.10885e-11
-6.13229e-11
5.976e-11
-6.47228e-11
7.97611e-11
-6.70801e-11
1.00099e-10
-6.80226e-11
1.15318e-10
-6.77963e-11
1.29465e-10
1.33205e-10
-6.54509e-11
-1.6847e-11
7.31747e-12
-1.79769e-11
1.65485e-11
-1.95492e-11
2.11732e-11
-2.14137e-11
2.45471e-11
-2.35869e-11
2.5777e-11
-2.59281e-11
2.56941e-11
-2.83264e-11
2.4703e-11
-3.06735e-11
2.31003e-11
-3.28988e-11
2.1067e-11
-3.49614e-11
1.86689e-11
-3.68417e-11
1.59629e-11
-3.85331e-11
1.30228e-11
-4.00395e-11
9.9634e-12
-4.13764e-11
6.93777e-12
-4.25746e-11
4.13563e-12
-4.3685e-11
1.7838e-12
-4.47819e-11
1.53405e-13
-4.59664e-11
-4.26242e-13
-4.73642e-11
4.50049e-13
-4.91167e-11
3.27661e-12
-5.13554e-11
8.63013e-12
-5.41559e-11
1.70947e-11
-5.74689e-11
2.91301e-11
-6.10652e-11
4.46848e-11
-6.45107e-11
6.32055e-11
-6.72941e-11
8.25445e-11
-6.89425e-11
1.01747e-10
-6.91794e-11
1.15555e-10
-6.8227e-11
1.28513e-10
1.30251e-10
-6.52736e-11
-1.80666e-11
8.37484e-12
-1.92634e-11
1.77454e-11
-2.08938e-11
2.28036e-11
-2.2814e-11
2.64672e-11
-2.50487e-11
2.80118e-11
-2.74699e-11
2.81152e-11
-2.99707e-11
2.72039e-11
-3.2442e-11
2.55716e-11
-3.4807e-11
2.3432e-11
-3.70179e-11
2.08798e-11
-3.90501e-11
1.79951e-11
-4.08949e-11
1.48676e-11
-4.25559e-11
1.16244e-11
-4.40501e-11
8.43191e-12
-4.54101e-11
5.49567e-12
-4.66884e-11
3.06207e-12
-4.79598e-11
1.42483e-12
-4.93227e-11
9.36685e-13
-5.0895e-11
2.02226e-12
-5.28004e-11
5.182e-12
-5.51402e-11
1.097e-11
-5.79466e-11
1.99011e-11
-6.11215e-11
3.23051e-11
-6.43994e-11
4.79626e-11
-6.73453e-11
6.61514e-11
-6.9494e-11
8.46932e-11
-7.04387e-11
1.02692e-10
-6.99835e-11
1.15099e-10
-6.83275e-11
1.26857e-10
1.26712e-10
-6.47885e-11
-1.93013e-11
9.5404e-12
-2.05703e-11
1.90144e-11
-2.2261e-11
2.44942e-11
-2.42362e-11
2.84424e-11
-2.65287e-11
3.03043e-11
-2.90225e-11
3.06089e-11
-3.16162e-11
2.97976e-11
-3.42015e-11
2.81569e-11
-3.6697e-11
2.59275e-11
-3.90491e-11
2.32319e-11
-4.12282e-11
2.01743e-11
-4.3223e-11
1.68624e-11
-4.50365e-11
1.34379e-11
-4.6686e-11
1.00814e-11
-4.82053e-11
7.015e-12
-4.96472e-11
4.50398e-12
-5.10853e-11
2.8629e-12
-5.2613e-11
2.46437e-12
-5.4337e-11
3.74626e-12
-5.63608e-11
7.20583e-12
-5.8754e-11
1.33632e-11
-6.15075e-11
2.26545e-11
-6.44819e-11
3.52796e-11
-6.73875e-11
5.08682e-11
-6.98006e-11
6.85645e-11
-7.13054e-11
8.6198e-11
-7.15561e-11
1.02943e-10
-7.04252e-11
1.13968e-10
-6.80899e-11
1.24521e-10
1.22612e-10
-6.399e-11
-2.05403e-11
1.08224e-11
-2.18874e-11
2.03616e-11
-2.36406e-11
2.62474e-11
-2.56703e-11
3.04722e-11
-2.80167e-11
3.26507e-11
-3.05758e-11
3.3168e-11
-3.32523e-11
3.24742e-11
-3.59404e-11
3.08449e-11
-3.85556e-11
2.85427e-11
-4.10396e-11
2.57158e-11
-4.33581e-11
2.24928e-11
-4.54969e-11
1.90012e-11
-4.74576e-11
1.53986e-11
-4.92575e-11
1.18813e-11
-5.09302e-11
8.68769e-12
-5.25276e-11
6.10138e-12
-5.41202e-11
4.45551e-12
-5.57943e-11
4.13847e-12
-5.76429e-11
5.59491e-12
-5.97473e-11
9.31016e-12
-6.2145e-11
1.57609e-11
-6.47892e-11
2.52988e-11
-6.75076e-11
3.7998e-11
-6.9997e-11
5.33576e-11
-7.18539e-11
7.04215e-11
-7.27127e-11
8.70568e-11
-7.2283e-11
1.02513e-10
-7.0495e-11
1.1218e-10
-6.7507e-11
1.21533e-10
1.17978e-10
-6.28724e-11
-2.17709e-11
1.22293e-11
-2.32024e-11
2.1793e-11
-2.50206e-11
2.80656e-11
-2.71044e-11
3.25559e-11
-2.95007e-11
3.5047e-11
-3.21176e-11
3.57849e-11
-3.48666e-11
3.52231e-11
-3.76453e-11
3.36236e-11
-4.0368e-11
3.12655e-11
-4.29725e-11
2.83203e-11
-4.54205e-11
2.49408e-11
-4.76944e-11
2.12751e-11
-4.97943e-11
1.74985e-11
-5.17363e-11
1.38232e-11
-5.3553e-11
1.05044e-11
-5.5294e-11
7.84237e-12
-5.70249e-11
6.18649e-12
-5.8823e-11
5.93651e-12
-6.07655e-11
7.53748e-12
-6.29102e-11
1.14549e-11
-6.5264e-11
1.81146e-11
-6.77466e-11
2.77814e-11
-7.01607e-11
4.04121e-11
-7.21994e-11
5.53962e-11
-7.34853e-11
7.17074e-11
-7.37019e-11
8.72734e-11
-7.26084e-11
1.0142e-10
-7.01847e-11
1.09757e-10
-6.65724e-11
1.17921e-10
1.12836e-10
-6.14311e-11
-2.29785e-11
1.37698e-11
-2.45009e-11
2.33154e-11
-2.6387e-11
2.99517e-11
-2.85244e-11
3.46934e-11
-3.09666e-11
3.74892e-11
-3.36337e-11
3.8452e-11
-3.64443e-11
3.80337e-11
-3.93007e-11
3.64799e-11
-4.21172e-11
3.4082e-11
-4.4829e-11
3.1032e-11
-4.73941e-11
2.7506e-11
-4.97919e-11
2.36729e-11
-5.202e-11
1.97266e-11
-5.40928e-11
1.5896e-11
-5.60407e-11
1.24523e-11
-5.79098e-11
9.71148e-12
-5.97593e-11
8.03602e-12
-6.16554e-11
7.8326e-12
-6.36585e-11
9.54059e-12
-6.58024e-11
1.35988e-11
-6.80652e-11
2.03774e-11
-7.03386e-11
3.00548e-11
-7.24077e-11
4.24812e-11
-7.39695e-11
5.69581e-11
-7.46768e-11
7.24146e-11
-7.42597e-11
8.68563e-11
-7.2522e-11
9.9682e-11
-6.94862e-11
1.06721e-10
-6.528e-11
1.13715e-10
1.07218e-10
-5.96615e-11
-2.41458e-11
1.54524e-11
-2.57662e-11
2.49358e-11
-2.77231e-11
3.19086e-11
-2.99139e-11
3.68842e-11
-3.23979e-11
3.99733e-11
-3.51074e-11
4.11615e-11
-3.79685e-11
4.08947e-11
-4.0889e-11
3.94004e-11
-4.37845e-11
3.69776e-11
-4.65887e-11
3.38362e-11
-4.92565e-11
3.01738e-11
-5.17642e-11
2.61806e-11
-5.41067e-11
2.20692e-11
-5.62959e-11
1.80852e-11
-5.83592e-11
1.45155e-11
-6.03376e-11
1.169e-11
-6.22827e-11
9.98109e-12
-6.42482e-11
9.7981e-12
-6.62767e-11
1.15691e-11
-6.83788e-11
1.57009e-11
-7.05063e-11
2.25048e-11
-7.2528e-11
3.20765e-11
-7.42186e-11
4.41719e-11
-7.52851e-11
5.80245e-11
-7.54124e-11
7.25419e-11
-7.43743e-11
8.58183e-11
-7.20144e-11
9.73221e-11
-6.83923e-11
1.03099e-10
-6.36243e-11
1.08947e-10
1.01153e-10
-5.75595e-11
-2.52535e-11
1.72857e-11
-2.69791e-11
2.66614e-11
-2.90101e-11
3.39395e-11
-3.1254e-11
3.9128e-11
-3.37757e-11
4.2495e-11
-3.65197e-11
4.39055e-11
-3.94197e-11
4.37948e-11
-4.23901e-11
4.23708e-11
-4.53489e-11
3.99364e-11
-4.82289e-11
3.67161e-11
-5.09829e-11
3.29278e-11
-5.35842e-11
2.8782e-11
-5.60249e-11
2.45098e-11
-5.83134e-11
2.03738e-11
-6.04732e-11
1.66753e-11
-6.25394e-11
1.37562e-11
-6.45544e-11
1.19961e-11
-6.65586e-11
1.18023e-11
-6.85767e-11
1.35871e-11
-7.05968e-11
1.7721e-11
-7.25479e-11
2.44559e-11
-7.42811e-11
3.38096e-11
-7.55666e-11
4.54575e-11
-7.61261e-11
5.85839e-11
-7.56773e-11
7.20931e-11
-7.40345e-11
8.41755e-11
-7.1077e-11
9.43645e-11
-6.68966e-11
9.89184e-11
-6.16006e-11
1.03651e-10
9.46742e-11
-5.51216e-11
-2.62797e-11
1.92778e-11
-2.81178e-11
2.84995e-11
-3.0226e-11
3.60478e-11
-3.25229e-11
4.14249e-11
-3.50784e-11
4.50505e-11
-3.78488e-11
4.66759e-11
-4.07762e-11
4.67222e-11
-4.37818e-11
4.53764e-11
-4.6787e-11
4.29416e-11
-4.9725e-11
3.96542e-11
-5.2547e-11
3.57498e-11
-5.52237e-11
3.14586e-11
-5.77437e-11
2.70298e-11
-6.0112e-11
2.27421e-11
-6.23469e-11
1.89102e-11
-6.44768e-11
1.58861e-11
-6.65339e-11
1.40532e-11
-6.8545e-11
1.38134e-11
-7.05165e-11
1.55587e-11
-7.24165e-11
1.96209e-11
-7.4154e-11
2.61935e-11
-7.55674e-11
3.52231e-11
-7.64278e-11
4.63179e-11
-7.64745e-11
5.86306e-11
-7.54581e-11
7.10768e-11
-7.323e-11
8.19474e-11
-6.97016e-11
9.08361e-11
-6.49931e-11
9.42099e-11
-5.92043e-11
9.78621e-11
8.78143e-11
-5.23445e-11
-2.71998e-11
2.1436e-11
-2.91576e-11
3.04573e-11
-3.13466e-11
3.82368e-11
-3.36964e-11
4.37748e-11
-3.62816e-11
4.76357e-11
-3.90703e-11
4.94646e-11
-4.20133e-11
4.96652e-11
-4.5039e-11
4.84022e-11
-4.80732e-11
4.59757e-11
-5.10503e-11
4.26313e-11
-5.39207e-11
3.86201e-11
-5.66524e-11
3.41904e-11
-5.9231e-11
2.96085e-11
-6.16572e-11
2.51683e-11
-6.39438e-11
2.11968e-11
-6.61113e-11
1.80535e-11
-6.81814e-11
1.61233e-11
-7.01667e-11
1.57987e-11
-7.20565e-11
1.74486e-11
-7.38004e-11
2.13647e-11
-7.52913e-11
2.76844e-11
-7.63592e-11
3.6291e-11
-7.67804e-11
4.6739e-11
-7.6314e-11
5.81642e-11
-7.47427e-11
6.95055e-11
-7.19515e-11
7.91562e-11
-6.78811e-11
8.67658e-11
-6.26765e-11
8.90053e-11
-5.64315e-11
9.16171e-11
8.06079e-11
-4.92251e-11
-2.79868e-11
2.37669e-11
-3.00712e-11
3.25417e-11
-3.23442e-11
4.05098e-11
-3.47469e-11
4.61775e-11
-3.73579e-11
5.02466e-11
-4.0157e-11
5.22638e-11
-4.31036e-11
5.26117e-11
-4.61341e-11
5.14327e-11
-4.91793e-11
4.90209e-11
-5.21758e-11
4.56278e-11
-5.50735e-11
4.15179e-11
-5.78387e-11
3.69555e-11
-6.04534e-11
3.22232e-11
-6.29139e-11
2.76287e-11
-6.52268e-11
2.35097e-11
-6.74044e-11
2.02312e-11
-6.94574e-11
1.81762e-11
-7.13844e-11
1.77257e-11
-7.31588e-11
1.9223e-11
-7.47135e-11
2.29195e-11
-7.59291e-11
2.89e-11
-7.66314e-11
3.69933e-11
-7.66048e-11
4.67124e-11
-7.56297e-11