/*--------------------------------*- C++ -*----------------------------------*\
| =========                 |                                                 |
| \\      /  F ield         | OpenFOAM: The Open Source CFD Toolbox           |
|  \\    /   O peration     | Version:  2.4.0                                 |
|   \\  /    A nd           | Web:      www.OpenFOAM.org                      |
|    \\/     M anipulation  |                                                 |
\*---------------------------------------------------------------------------*/
FoamFile
{
    version     2.0;
    format      ascii;
    class       volVectorField;
    location    "0.02";
    object      U;
}
// * * * * * * * * * * * * * * * * * * * * * * * * * * * * * * * * * * * * * //

dimensions      [0 1 -1 0 0 0 0];

internalField   nonuniform List<vector> 
7200
(
(-5.5635e-05 0.000880886 -4.78209e-25)
(6.52177e-05 -0.000197527 3.06742e-22)
(-0.000182514 0.000235246 -1.18692e-21)
(0.000152301 5.07329e-05 0)
(-0.000235597 0.000254751 -1.32865e-23)
(-2.83927e-05 0.000127601 -1.56672e-21)
(-0.000158317 0.000166548 0)
(-0.000106223 0.000120368 0)
(-0.000141082 0.000111677 0)
(-0.000130058 8.72759e-05 -3.87544e-23)
(-0.000135047 6.9356e-05 1.35606e-21)
(-0.00012968 5.0627e-05 1.48881e-21)
(-0.00012514 3.38567e-05 1.53665e-21)
(-0.00011757 1.86561e-05 -2.48831e-23)
(-0.000108849 5.33531e-06 -1.19306e-25)
(-9.8821e-05 -5.97873e-06 0)
(-8.78636e-05 -1.52354e-05 2.77039e-23)
(-7.68898e-05 -2.24613e-05 4.4049e-24)
(-6.39651e-05 -2.7387e-05 1.75296e-21)
(-5.76082e-05 -3.1859e-05 -3.18489e-23)
(-3.04565e-05 -2.84378e-05 -5.38217e-23)
(-7.17134e-05 -4.73449e-05 -3.19631e-21)
(8.75205e-05 1.66347e-05 2.78906e-21)
(-0.000321861 -0.00017664 3.42062e-21)
(0.000787995 0.00037703 5.24152e-22)
(-0.00201004 -0.00109986 -3.71012e-21)
(0.00412271 0.00230035 7.62044e-23)
(-0.0056426 -0.00314165 -3.24349e-21)
(0.0040971 0.00116047 1.66989e-20)
(-0.0014964 0.000195808 -2.51581e-21)
(-0.000227206 0.00284337 -8.99256e-25)
(9.43844e-05 0.000252738 -4.41281e-22)
(-0.000436562 0.000645866 1.42165e-21)
(0.00013343 0.00035315 0)
(-0.00045864 0.000699615 0)
(-0.000263456 0.000506148 5.98878e-23)
(-0.000455241 0.000534736 3.65355e-23)
(-0.000413671 0.000429763 -4.09345e-23)
(-0.000474174 0.000380186 0)
(-0.000470038 0.000304423 1.74752e-21)
(-0.000479971 0.00024009 -1.90771e-21)
(-0.00047077 0.000175179 -2.02999e-21)
(-0.000457652 0.000115712 -4.44942e-21)
(-0.000435984 6.11923e-05 -1.11517e-21)
(-0.000409084 1.28017e-05 2.98505e-22)
(-0.00037736 -2.89924e-05 -3.07242e-22)
(-0.00034211 -6.37852e-05 1.25093e-21)
(-0.000305217 -9.16659e-05 -2.5523e-21)
(-0.000265398 -0.000111695 9.20374e-23)
(-0.000232376 -0.000128277 2.51608e-21)
(-0.00018014 -0.000127041 -7.43166e-23)
(-0.000194113 -0.000160553 0)
(-2.6946e-05 -6.48467e-05 7.57586e-23)
(-0.000371832 -0.000335734 -5.10529e-21)
(0.000576952 0.000399026 -6.34357e-22)
(-0.00174555 -0.00148925 9.03246e-21)
(0.00418542 0.00315295 1.24216e-22)
(-0.00758563 -0.00610769 -3.45909e-20)
(0.00616124 0.00303907 -2.53725e-20)
(-0.00444271 0.000273503 4.1462e-21)
(-0.000456258 0.00500311 0)
(6.1681e-06 0.00129842 -5.05008e-22)
(-0.000767661 0.00121571 -6.03085e-22)
(7.2492e-05 0.000888405 8.60996e-22)
(-0.000690751 0.00115534 0)
(-0.000520089 0.00099205 2.15006e-21)
(-0.000791833 0.000958876 0)
(-0.000777877 0.000812042 0)
(-0.000868002 0.000702777 -4.98576e-23)
(-0.000880771 0.000570626 -3.45977e-21)
(-0.00090001 0.000448144 -2.75177e-23)
(-0.000892001 0.000327047 3.17909e-23)
(-0.000872941 0.000213878 2.23315e-21)
(-0.000838761 0.000109209 1.1189e-21)
(-0.000793673 1.50247e-05 3.00046e-22)
(-0.000738888 -6.75905e-05 6.16926e-22)
(-0.000676692 -0.000137706 -1.25512e-21)
(-0.00060984 -0.000195151 0)
(-0.0005385 -0.000238765 -5.06835e-21)
(-0.000472082 -0.000272828 -2.51911e-21)
(-0.000389912 -0.000285278 7.88339e-23)
(-0.000367795 -0.000319458 1.84859e-24)
(-0.000180539 -0.000250915 -1.45313e-22)
(-0.000505831 -0.00044526 2.45531e-21)
(0.000542489 4.97743e-05 0)
(-0.00194486 -0.00116272 -4.84064e-22)
(0.00453522 0.0016971 1.22446e-22)
(-0.0103911 -0.005894 1.39945e-20)
(0.00917224 0.00370945 -7.25172e-21)
(-0.0084663 0.000177584 0)
(-0.000737477 0.00733734 -1.2323e-24)
(-0.000175176 0.00279184 -6.17582e-24)
(-0.0011644 0.00205558 1.39972e-23)
(-0.000139941 0.00161615 -7.73811e-23)
(-0.000932388 0.00173676 5.57442e-22)
(-0.000825769 0.00156497 -1.07528e-21)
(-0.00116664 0.00146728 -1.161e-21)
(-0.00120473 0.00126599 4.14499e-23)
(-0.00132889 0.00108846 -1.56735e-21)
(-0.00136803 0.000888908 1.70992e-21)
(-0.00140177 0.000697344 1.9541e-21)
(-0.00139979 0.000508556 -2.04273e-21)
(-0.00137774 0.000330048 3.49649e-23)
(-0.00133274 0.000163581 -3.56863e-23)
(-0.00126965 1.21647e-05 2.27999e-25)
(-0.00119062 -0.000122307 -6.19824e-22)
(-0.00109902 -0.000238179 -4.0129e-23)
(-0.000998478 -0.000334822 3.93178e-23)
(-0.000891082 -0.000410725 2.59244e-21)
(-0.000785248 -0.000469942 2.41288e-21)
(-0.000668731 -0.000501976 -2.50244e-21)
(-0.000598062 -0.000544883 1.5145e-22)
(-0.000406457 -0.000497013 -1.4816e-22)
(-0.000628484 -0.000660933 -4.74881e-21)
(0.000305335 -0.00028852 -1.59226e-21)
(-0.00188778 -0.00123527 -3.42923e-21)
(0.00356804 0.000363879 -5.66403e-24)
(-0.0111345 -0.00483684 -8.21452e-21)
(0.0104705 0.00373202 1.34371e-20)
(-0.0130867 -1.9587e-05 -3.80246e-23)
(-0.00107063 0.00982833 1.56918e-24)
(-0.0004308 0.00463108 5.61364e-22)
(-0.00162885 0.00319409 7.32288e-23)
(-0.000507625 0.00254723 -8.44816e-22)
(-0.00125033 0.00248163 -5.42119e-22)
(-0.00118858 0.00225038 0)
(-0.00159487 0.00207352 1.13761e-21)
(-0.00169698 0.00180223 4.46744e-23)
(-0.00186386 0.00154468 -4.65743e-23)
(-0.00193731 0.00126539 -5.62446e-23)
(-0.00199176 0.000992374 2.02179e-21)
(-0.00200066 0.000723253 2.48466e-24)
(-0.001979 0.000466599 -1.14047e-21)
(-0.00192511 0.000225553 0)
(-0.00184447 4.31384e-06 -3.02153e-22)
(-0.00174025 -0.000194208 6.22569e-22)
(-0.00161692 -0.00036745 1.27211e-21)
(-0.00147915 -0.000514096 1.28787e-21)
(-0.00133107 -0.000632221 0)
(-0.00118052 -0.000725281 0)
(-0.00102306 -0.000784767 2.5154e-21)
(-0.000899675 -0.000843121 0)
(-0.000693103 -0.000821782 -2.43841e-21)
(-0.000819935 -0.000970837 2.50291e-21)
(-9.81441e-06 -0.000704663 1.6164e-21)
(-0.00203519 -0.00154671 0)
(0.0023888 -0.000561314 8.41831e-23)
(-0.010882 -0.00368995 1.57252e-20)
(0.0100734 0.00328356 -6.19169e-21)
(-0.0182872 -0.000264017 3.79049e-23)
(-0.00145661 0.0124624 -1.79459e-25)
(-0.000747446 0.0067463 -1.6355e-23)
(-0.00215508 0.0046237 -4.22547e-23)
(-0.00102128 0.00368901 9.00906e-22)
(-0.00168559 0.00340956 0)
(-0.00163552 0.00307026 0)
(-0.00209251 0.00279292 -3.78756e-23)
(-0.00226317 0.00243197 -1.37834e-21)
(-0.00248021 0.00207981 3.18086e-21)
(-0.0025953 0.00170651 0)
(-0.00267678 0.00133823 -3.17877e-23)
(-0.0027016 0.000974857 3.31328e-23)
(-0.00268399 0.000626061 1.1106e-21)
(-0.00262344 0.00029647 -1.85018e-23)
(-0.00252604 -8.38736e-06 3.22049e-22)
(-0.00239596 -0.000284385 -2.92593e-22)
(-0.00223887 -0.000527878 -1.33662e-21)
(-0.00206057 -0.000736642 -1.25295e-21)
(-0.00186737 -0.000908232 4.14711e-23)
(-0.0016671 -0.00104531 -2.55801e-21)
(-0.00146256 -0.0011413 -7.85167e-23)
(-0.00128262 -0.00122418 2.61317e-21)
(-0.00105528 -0.00123518 4.65387e-21)
(-0.00109647 -0.00138557 1.74886e-24)
(-0.000443881 -0.0012036 6.21101e-23)
(-0.00232662 -0.00198516 -2.95124e-23)
(0.00129233 -0.00112173 2.38869e-23)
(-0.0103876 -0.00286982 -9.3075e-22)
(0.00806526 0.00251357 0)
(-0.0240193 -0.000520631 0)
(-0.00189764 0.0152286 4.20592e-24)
(-0.00111795 0.00908941 -6.13195e-22)
(-0.00273125 0.00632357 -1.84597e-23)
(-0.00166295 0.00504121 6.46441e-23)
(-0.00225934 0.00452628 0)
(-0.0021938 0.00404039 3.31021e-23)
(-0.00267974 0.00363835 -3.75901e-23)
(-0.00291533 0.00316629 1.43451e-21)
(-0.00318684 0.00270227 -1.60303e-21)
(-0.00334961 0.00221888 0)
(-0.00346415 0.00174003 -1.95163e-21)
(-0.00350994 0.00126723 2.1001e-21)
(-0.00350028 0.000811109 3.53497e-23)
(-0.00343563 0.000377828 -1.20639e-21)
(-0.00332262 -2.56508e-05 1.76961e-26)
(-0.00316642 -0.000393813 0)
(-0.00297394 -0.000721756 0)
(-0.00275227 -0.00100615 0)
(-0.00250997 -0.0012439 2.58442e-21)
(-0.00225552 -0.00143673 2.57146e-21)
(-0.00199848 -0.0015799 -2.4441e-21)
(-0.00175977 -0.0016976 2.32075e-23)
(-0.00150735 -0.00174822 -2.607e-21)
(-0.00148005 -0.0019075 2.57255e-21)
(-0.0009886 -0.00179254 0)
(-0.00270613 -0.00248278 -2.94422e-21)
(0.000288554 -0.00152819 -6.61504e-23)
(-0.0102366 -0.00254943 -5.69098e-22)
(0.00457514 0.00154881 7.36792e-23)
(-0.0302008 -0.000767592 -3.65911e-23)
(-0.00239697 0.0181181 -9.05519e-25)
(-0.00154005 0.0116271 6.33947e-22)
(-0.003346 0.00827007 -3.27663e-22)
(-0.00240964 0.00659844 -9.85129e-22)
(-0.00297511 0.00582899 -3.17444e-23)
(-0.00288415 0.00516838 0)
(-0.00337698 0.00461893 3.91358e-23)
(-0.00366787 0.00401438 -1.49878e-21)
(-0.00399415 0.00341987 1.5714e-21)
(-0.00420873 0.00280889 5.51643e-23)
(-0.00436164 0.00220286 0)
(-0.0044333 0.00160428 0)
(-0.00443566 0.00102454 3.54767e-23)
(-0.00436982 0.000471296 1.11952e-21)
(-0.00424281 -4.69834e-05 -5.91702e-22)
(-0.00406077 -0.000523251 3.34792e-22)
(-0.00383186 -0.000951189 -1.98184e-23)
(-0.00356461 -0.00132618 0)
(-0.00326996 -0.00164433 6.07483e-24)
(-0.00295773 -0.00190633 8.46969e-23)
(-0.00264406 -0.00210898 2.54376e-21)
(-0.00234562 -0.00227319 -2.59331e-21)
(-0.00206596 -0.00237081 0)
(-0.00198334 -0.0025446 -2.52911e-21)
(-0.00163665 -0.00248107 0)
(-0.0031645 -0.00305317 2.99988e-21)
(-0.000800878 -0.00199699 -6.07421e-24)
(-0.0108256 -0.00275215 -4.83897e-22)
(-0.000240222 0.000495362 6.86054e-23)
(-0.0367375 -0.000991024 -3.54255e-23)
(-0.00295854 0.0211234 -6.00763e-24)
(-0.00201531 0.0143359 -1.34074e-21)
(-0.00399192 0.0104413 7.83743e-22)
(-0.00323717 0.00835347 2.51686e-23)
(-0.00382329 0.00731066 0)
(-0.00371695 0.006455 1.21961e-21)
(-0.0042014 0.00573917 -3.98914e-23)
(-0.0045355 0.00498268 1.46996e-21)
(-0.00491338 0.00423901 -1.68847e-21)
(-0.00518173 0.00348227 5.57053e-23)
(-0.00537729 0.00273153 0)
(-0.00547946 0.00198985 3.36058e-23)
(-0.00549801 0.00126922 1.08802e-21)
(-0.00543427 0.000578723 -1.8679e-23)
(-0.00529543 -7.16408e-05 3.25013e-22)
(-0.00508852 -0.000673169 -2.95714e-22)
(-0.00482295 -0.00121799 -1.98831e-23)
(-0.00450884 -0.00170004 -4.19181e-23)
(-0.00415967 -0.00211446 -2.61508e-21)
(-0.00378728 -0.00246084 -2.75698e-21)
(-0.00341445 -0.00273714 -2.58927e-21)
(-0.00305675 -0.00296119 8.5257e-23)
(-0.00274878 -0.00311492 -2.7753e-21)
(-0.00262055 -0.00331154 7.73282e-23)
(-0.0023995 -0.00329518 -2.34741e-21)
(-0.00377342 -0.00375649 0)
(-0.0022168 -0.00268825 1.38731e-22)
(-0.0124037 -0.00340752 -6.01723e-21)
(-0.00619032 -0.000564252 2.47108e-21)
(-0.0435311 -0.00118267 -3.39586e-23)
(-0.00358667 0.0242377 9.92866e-24)
(-0.00254803 0.0171984 7.0883e-22)
(-0.00466658 0.0128187 -4.69286e-22)
(-0.00412414 0.0102993 -1.32072e-21)
(-0.00478601 0.00896349 0)
(-0.00469193 0.00789669 -1.20217e-21)
(-0.00516412 0.00699943 -1.2614e-21)
(-0.00553101 0.00607449 -4.54878e-23)
(-0.00595548 0.00516425 -1.67309e-21)
(-0.00627771 0.00424375 -1.84446e-21)
(-0.00651917 0.00333035 1.9936e-21)
(-0.0066561 0.00242763 -2.16581e-21)
(-0.00669516 0.00154809 -1.09212e-21)
(-0.00663723 0.000702161 1.19927e-21)
(-0.00648942 -9.8566e-05 -3.2549e-22)
(-0.00625947 -0.000843649 2.96066e-22)
(-0.00595806 -0.00152354 6.11961e-23)
(-0.00559704 -0.0021306 -8.26266e-23)
(-0.00519264 -0.00265887 2.71269e-21)
(-0.00475945 -0.00310677 2.6858e-21)
(-0.00432704 -0.00347305 5.3858e-21)
(-0.00391252 -0.00377273 8.67642e-23)
(-0.00357767 -0.00399557 2.55677e-21)
(-0.00341648 -0.00423074 0)
(-0.0033248 -0.00427318 2.38287e-21)
(-0.00466567 -0.00466345 0)
(-0.00419658 -0.00368183 1.05958e-21)
(-0.0150879 -0.004399 5.27382e-23)
(-0.0130653 -0.00156955 -2.48338e-21)
(-0.0504831 -0.00133842 -3.22294e-23)
(-0.00428576 0.0274546 -1.67567e-23)
(-0.00314407 0.0202015 1.57097e-23)
(-0.00537229 0.0153864 5.76527e-22)
(-0.00505447 0.0124302 1.33764e-21)
(-0.00584196 0.0107811 -3.2672e-23)
(-0.00579991 0.00948813 3.77784e-23)
(-0.00626896 0.00839716 1.27575e-21)
(-0.00666351 0.00729033 4.7052e-23)
(-0.00712988 0.00619813 3.44662e-21)
(-0.00750513 0.00509683 -1.2841e-22)
(-0.0077949 0.00400302 6.9541e-23)
(-0.0079706 0.00292106 2.14153e-21)
(-0.00803464 0.00186408 0)
(-0.00798677 0.000843885 -1.16573e-21)
(-0.00783365 -0.000126316 5.95695e-22)
(-0.00758359 -0.00103426 -3.37309e-22)
(-0.00724849 -0.00186863 6.13095e-23)
(-0.00684212 -0.0026201 1.28092e-21)
(-0.00638372 -0.00328153 -2.72653e-21)
(-0.0058914 -0.00385013 -4.55278e-23)
(-0.00540193 -0.00432526 -2.54489e-21)
(-0.00493652 -0.00471973 -1.70614e-22)
(-0.00458237 -0.0050303 8.17611e-23)
(-0.00441404 -0.00532862 2.61513e-21)
(-0.00449705 -0.00545487 1.72314e-22)
(-0.00600421 -0.00582553 -1.50448e-22)
(-0.00692977 -0.00498252 -1.1635e-21)
(-0.0188845 -0.00559665 -4.77483e-21)
(-0.0206505 -0.00247965 2.05297e-21)
(-0.0574984 -0.00145715 -1.81727e-21)
(-0.00506003 0.030768 9.05328e-24)
(-0.00380994 0.0233344 -1.65266e-23)
(-0.00611507 0.0181313 -5.80839e-22)
(-0.00601854 0.0147415 -1.73323e-23)
(-0.00697049 0.0127595 -1.21014e-21)
(-0.00702565 0.0112244 1.23371e-22)
(-0.00751262 0.00992846 1.43447e-21)
(-0.00793724 0.00862868 -4.8905e-23)
(-0.00844339 0.0073414 -3.46523e-21)
(-0.00887102 0.00604378 1.88099e-21)
(-0.00921126 0.00475249 -4.08789e-21)
(-0.00942965 0.00347328 3.3256e-23)
(-0.00952346 0.00222016 3.59802e-23)
(-0.00949057 0.00100644 -5.54027e-23)
(-0.00933682 -0.000152978 -2.89068e-22)
(-0.00907085 -0.00124394 2.01511e-23)
(-0.00870584 -0.00225326 -1.99836e-23)
(-0.00825768 -0.0031699 -2.6486e-21)
(-0.007749 -0.00398545 2.68412e-21)
(-0.00720236 -0.00469604 8.73411e-23)
(-0.00666252 -0.00530164 -8.33687e-23)
(-0.00615798 -0.00581386 2.83075e-21)
(-0.00580332 -0.00623657 -2.93466e-21)
(-0.00567612 -0.00662929 1.82488e-22)
(-0.00602685 -0.00686872 1.49738e-23)
(-0.00794925 -0.00725891 2.79312e-21)
(-0.0105351 -0.00653833 0)
(-0.0237149 -0.00687801 4.95577e-21)
(-0.0287377 -0.00327054 -2.07344e-21)
(-0.0644886 -0.00153985 1.92144e-21)
(-0.00591339 0.0341718 -1.66104e-23)
(-0.00455211 0.0265875 1.73704e-23)
(-0.00690334 0.0210414 -3.89034e-23)
(-0.00701305 0.0172289 1.86168e-23)
(-0.00815443 0.0148969 -1.29567e-22)
(-0.00835119 0.0131022 6.78489e-25)
(-0.00888598 0.0115895 -1.40457e-21)
(-0.00935136 0.010087 0)
(-0.00989946 0.00859352 -8.70431e-23)
(-0.0103803 0.00708578 1.98946e-21)
(-0.0107736 0.00558106 1.93504e-23)
(-0.0110389 0.00408712 -6.78927e-23)
(-0.0111678 0.00261933 7.13312e-23)
(-0.0111557 0.00119269 -1.78672e-23)
(-0.0110071 -0.000176067 -3.2644e-22)
(-0.010731 -0.00147081 -2.01391e-23)
(-0.0103418 -0.00267644 1.9976e-23)
(-0.00985789 -0.00378014 1.32705e-21)
(-0.00930579 -0.00477228 -2.69605e-21)
(-0.00871365 -0.00564809 -2.62637e-21)
(-0.00813582 -0.00640838 5.1044e-24)
(-0.0076126 -0.00706466 -5.51396e-21)
(-0.00729205 -0.00762787 5.5481e-24)
(-0.00728148 -0.0081474 -5.63369e-21)
(-0.0080337 -0.00852221 -5.51869e-21)
(-0.0106312 -0.00894091 -4.89867e-23)
(-0.0150539 -0.00826259 -6.40503e-23)
(-0.0294417 -0.00814007 0)
(-0.0371341 -0.00393192 4.27847e-23)
(-0.0713737 -0.00158886 -3.1622e-21)
(-0.00684939 0.0376597 1.46917e-23)
(-0.00537649 0.0299523 4.69183e-24)
(-0.00774665 0.024106 0)
(-0.00804008 0.0198884 1.62638e-21)
(-0.00938174 0.0171933 1.32658e-21)
(-0.00975866 0.0151204 1.54778e-21)
(-0.010376 0.0133778 5.17184e-23)
(-0.0109004 0.0116629 0)
(-0.0114979 0.00995332 1.74729e-21)
(-0.0120355 0.00822329 -1.88209e-21)
(-0.0124856 0.00649051 2.0352e-21)
(-0.0128028 0.00476523 3.38705e-23)
(-0.0129729 0.00306469 3.62257e-23)
(-0.0129883 0.0014059 -1.2274e-21)
(-0.0128521 -0.000192432 6.15715e-22)
(-0.0125734 -0.00171207 0)
(-0.0121681 -0.00313592 -1.29141e-21)
(-0.0116572 -0.00444942 -4.21632e-23)
(-0.0110723 -0.00564176 2.71504e-21)
(-0.0104485 -0.0067075 5.52375e-21)
(-0.00985232 -0.00764855 -1.72749e-22)
(-0.00934197 -0.00847701 2.86309e-21)
(-0.0091086 -0.00920942 1.68304e-23)
(-0.009316 -0.00988234 2.80488e-21)
(-0.0106275 -0.0103972 5.60143e-21)
(-0.014133 -0.0108156 -1.68207e-22)
(-0.0204559 -0.0100547 0)
(-0.0358929 -0.00930487 0)
(-0.045667 -0.00446403 0)
(-0.0780831 -0.00160719 4.6539e-22)
(-0.00787113 0.0412255 0)
(-0.00628819 0.0334206 1.92085e-23)
(-0.00865455 0.0273144 -2.60974e-23)
(-0.00910564 0.022715 -1.70977e-21)
(-0.0106459 0.0196493 0)
(-0.0112326 0.0172799 7.17972e-23)
(-0.011968 0.0152923 5.13714e-23)
(-0.0125753 0.0133544 -3.66444e-21)
(-0.0132349 0.0114196 -1.89707e-21)
(-0.0138362 0.00945642 0)
(-0.0143488 0.00748228 -2.11362e-21)
(-0.0147241 0.00551013 0)
(-0.0149424 0.0035595 1.15183e-21)
(-0.0149933 0.00164976 5.79649e-22)
(-0.0148784 -0.000198146 1.76266e-23)
(-0.0146066 -0.00196378 2.00324e-23)
(-0.0141956 -0.00362798 1.91842e-21)
(-0.0136701 -0.00517443 -4.19586e-23)
(-0.0130672 -0.00659117 -5.30233e-21)
(-0.0124316 -0.00787225 -2.63493e-21)
(-0.011845 -0.00902064 5.15382e-24)
(-0.0113916 -0.0100487 -8.39965e-23)
(-0.0113165 -0.0109747 5.61646e-21)
(-0.0118617 -0.011815 0)
(-0.0138926 -0.0124506 9.08306e-23)
(-0.0184818 -0.0128045 -5.34138e-21)
(-0.0266521 -0.0118166 4.5109e-23)
(-0.0428816 -0.0103202 -5.45103e-23)
(-0.0541879 -0.00487451 4.62887e-23)
(-0.0845556 -0.00159809 3.06837e-21)
(-0.00898127 0.0448624 -3.76252e-24)
(-0.00729148 0.0369844 2.56279e-23)
(-0.00963582 0.0306563 -2.71757e-23)
(-0.0102182 0.0257028 0)
(-0.0119455 0.0222652 1.5737e-21)
(-0.012761 0.0195827 1.23084e-22)
(-0.0136473 0.0173338 -5.77281e-23)
(-0.0143646 0.0151612 5.52342e-21)
(-0.0151037 0.0129917 1.91213e-21)
(-0.0157793 0.0107854 -2.11823e-21)
(-0.0163624 0.00855778 2.22493e-21)
(-0.0168034 0.00632438 -6.96946e-23)
(-0.0170786 0.00410727 -1.08383e-21)
(-0.0171745 0.00192854 5.61052e-22)
(-0.0170911 -0.000188418 -3.07849e-22)
(-0.016838 -0.00222077 0)
(-0.0164347 -0.00414721 -6.44715e-22)
(-0.0159102 -0.00594957 -4.16339e-23)
(-0.0153091 -0.00761472 7.7912e-23)
(-0.0146877 -0.00913609 0)
(-0.0141479 -0.0105171 -2.69856e-21)
(-0.0138074 -0.0117683 2.80199e-21)
(-0.0139758 -0.0129036 -2.89913e-21)
(-0.0149861 -0.0139078 0)
(-0.0178772 -0.0146195 0)
(-0.0236501 -0.0148191 2.5002e-21)
(-0.0335112 -0.0134641 5.91087e-23)
(-0.0502221 -0.0111573 -2.03837e-21)
(-0.0625717 -0.0051755 2.79633e-23)
(-0.0907388 -0.00156465 -1.81448e-23)
(-0.0101821 0.0485637 0)
(-0.00838974 0.0406358 -9.2822e-22)
(-0.0106979 0.0341215 0)
(-0.0113872 0.0288446 5.17367e-23)
(-0.0132831 0.0250402 -1.6634e-21)
(-0.0143364 0.0220314 -1.81255e-21)
(-0.0154008 0.0195046 3.75461e-21)
(-0.0162559 0.017084 -1.95734e-21)
(-0.0170955 0.0146698 1.2552e-22)
(-0.0178593 0.0122107 2.00223e-21)
(-0.0185234 0.00971855 -3.39843e-23)
(-0.0190398 0.00721068 3.50633e-23)
(-0.0193817 0.00471185 1.12636e-21)
(-0.0195336 0.00224707 3.71097e-23)
(-0.0194942 -0.000157527 0)
(-0.0192735 -0.00247652 3.10967e-22)
(-0.0188941 -0.00468628 6.3212e-22)
(-0.0183901 -0.00676667 1.28192e-21)
(-0.0178152 -0.00870309 4.74538e-23)
(-0.0172407 -0.0104878 2.70795e-21)
(-0.016793 -0.0121231 2.63411e-21)
(-0.0166315 -0.0136143 -5.30137e-21)
(-0.0171365 -0.0149622 2.59133e-21)
(-0.0187328 -0.0161073 -2.56421e-21)
(-0.0225877 -0.0168289 2.49825e-21)
(-0.0295621 -0.0167719 0)
(-0.0408765 -0.0149331 2.94088e-23)
(-0.0577409 -0.0118066 3.49349e-21)
(-0.0707168 -0.00538126 1.30501e-21)
(-0.0965881 -0.00150959 1.53556e-23)
(-0.0114753 0.052322 4.59468e-24)
(-0.00958564 0.0443669 2.92754e-21)
(-0.0118469 0.0376996 1.0238e-21)
(-0.012622 0.0321317 -2.96494e-23)
(-0.0146643 0.027972 6.31696e-23)
(-0.0159551 0.0246281 5.80338e-23)
(-0.017218 0.0218075 -5.89676e-21)
(-0.0182371 0.0191248 -1.91537e-21)
(-0.0191997 0.0164551 -6.57187e-23)
(-0.0200685 0.0137335 -2.15625e-21)
(-0.0208266 0.0109665 -2.18503e-21)
(-0.02143 0.00817205 -7.11417e-23)
(-0.0218503 0.00537746 -1.09423e-21)
(-0.0220707 0.00261081 -3.71943e-23)
(-0.0220893 -9.87826e-05 3.03728e-22)
(-0.0219173 -0.00272308 -3.11945e-22)
(-0.0215806 -0.0052359 -6.3424e-22)
(-0.0211203 -0.00761477 -1.28676e-21)
(-0.0206008 -0.00984311 1.76129e-23)
(-0.0201116 -0.0119109 -2.59662e-21)
(-0.0198082 -0.0138166 2.66828e-21)
(-0.0198975 -0.0155552 2.51087e-21)
(-0.0208319 -0.0171043 -2.53591e-21)
(-0.0231165 -0.0183491 4.92966e-21)
(-0.0279897 -0.0189995 -2.53526e-21)
(-0.036105 -0.018586 5.34e-23)
(-0.0485816 -0.0161817 -2.48203e-23)
(-0.0652839 -0.0122732 -1.47709e-21)
(-0.0785416 -0.00550624 -1.36482e-21)
(-0.102066 -0.00143518 -1.2458e-23)
(-0.0128622 0.0561297 0)
(-0.0108812 0.0481694 -9.81333e-22)
(-0.0130871 0.0413804 -1.13689e-21)
(-0.013931 0.0355548 -5.68164e-23)
(-0.0160961 0.0310563 8.60548e-24)
(-0.0176168 0.0273735 6.42814e-23)
(-0.0190911 0.0242455 1.99751e-21)
(-0.0202969 0.0212864 2.06099e-21)
(-0.0214054 0.0183494 -6.59798e-23)
(-0.0223978 0.0153556 2.23936e-21)
(-0.0232651 0.0123039 2.19623e-21)
(-0.0239686 0.00921182 1.1533e-21)
(-0.0244806 0.00610874 -6.8165e-26)
(-0.0247836 0.00302586 3.72685e-23)
(-0.024876 -4.54622e-06 -6.06632e-22)
(-0.0247709 -0.00295112 0)
(-0.0244987 -0.00578474 0)
(-0.0241082 -0.00848011 -3.97765e-23)
(-0.0236772 -0.0110177 3.80339e-21)
(-0.0233163 -0.0133834 1.20241e-22)
(-0.0232137 -0.0155682 -2.64989e-22)
(-0.0236268 -0.0175507 7.76281e-23)
(-0.0250745 -0.0192753 -7.869e-23)
(-0.0281204 -0.0205637 -2.44241e-21)
(-0.0340122 -0.0210562 -1.98314e-21)
(-0.0431413 -0.0202002 4.28451e-23)
(-0.0564624 -0.0171889 -2.43694e-23)
(-0.0727189 -0.0125713 2.02624e-22)
(-0.0859817 -0.00556378 1.3703e-23)
(-0.107139 -0.00134319 -9.45169e-24)
(-0.0143437 0.0599784 6.5051e-23)
(-0.0122777 0.052035 -2.13667e-21)
(-0.0144216 0.0451536 0)
(-0.0153212 0.0391032 0)
(-0.017586 0.0342868 0)
(-0.0193235 0.0302668 2.16951e-21)
(-0.0210151 0.0268208 0)
(-0.0224256 0.0235715 2.21365e-21)
(-0.0237015 0.0203554 0)
(-0.0248369 0.0170792 -2.27035e-21)
(-0.0258299 0.0137334 -3.55131e-23)
(-0.0266485 0.0103336 -1.1217e-21)
(-0.0272666 0.00691072 1.21664e-21)
(-0.0276678 0.00349886 -6.32718e-22)
(-0.0278514 0.000133702 3.02899e-22)
(-0.0278332 -0.00314996 3.01189e-22)
(-0.0276491 -0.00631957 6.04069e-22)
(-0.0273576 -0.00934622 0)
(-0.0270511 -0.012206 -1.25e-21)
(-0.0268641 -0.0148784 0)
(-0.0270197 -0.0173426 -2.58887e-21)
(-0.0278248 -0.0195539 2.39541e-21)
(-0.0298531 -0.0214156 0)
(-0.0336977 -0.0226824 1.98278e-21)
(-0.0405554 -0.0229335 2.08104e-21)
(-0.0505212 -0.0215721 0)
(-0.0643662 -0.0179509 4.23408e-24)
(-0.0799365 -0.0127205 -1.96023e-22)
(-0.0929865 -0.00556535 -1.12424e-21)
(-0.11178 -0.00123501 -6.33606e-24)
(-0.0159199 0.0638591 -6.29601e-23)
(-0.0137762 0.0559545 3.35498e-21)
(-0.0158523 0.0490086 0)
(-0.0167977 0.0427658 2.12518e-21)
(-0.019141 0.0376554 7.14736e-23)
(-0.0210791 0.033305 6.64729e-23)
(-0.0229874 0.0295341 -2.2039e-21)
(-0.0246152 0.0259826 -2.23865e-21)
(-0.0260773 0.0224755 -7.33006e-23)
(-0.0273748 0.018907 2.356e-21)
(-0.0285108 0.015258 -1.09892e-22)
(-0.0294604 0.0115414 3.70929e-23)
(-0.0302005 0.00778872 -1.18425e-21)
(-0.0307164 0.00403693 5.97382e-22)
(-0.0310097 0.000325223 2.97169e-22)
(-0.0310998 -0.0033078 -3.02137e-22)
(-0.0310293 -0.00682547 -5.27363e-23)
(-0.0308672 -0.0101942 1.21184e-21)
(-0.0307229 -0.0133841 1.16445e-21)
(-0.0307559 -0.016365 2.29566e-21)
(-0.0312242 -0.0190999 -7.32559e-23)
(-0.0324794 -0.0215146 -2.26934e-21)
(-0.0351332 -0.0234653 1.96295e-21)
(-0.0397751 -0.0246421 -3.65642e-21)
(-0.0474994 -0.0245798 0)
(-0.0580927 -0.0226776 -1.85691e-23)
(-0.0721571 -0.0184777 2.01442e-23)
(-0.086848 -0.0127421 -3.23877e-23)
(-0.0995159 -0.00552019 2.23727e-21)
(-0.115963 -0.00111177 0)
(-0.0175901 0.067762 0)
(-0.0153768 0.0599183 -4.71655e-21)
(-0.0173796 0.0529347 3.59029e-23)
(-0.018364 0.0465306 -2.23741e-21)
(-0.0207668 0.0411524 -6.66595e-23)
(-0.0228874 0.036483 -2.22663e-21)
(-0.0250067 0.0323847 2.36967e-21)
(-0.0268592 0.0285211 -2.47158e-21)
(-0.0285231 0.024712 2.39492e-21)
(-0.0300002 0.0208415 -7.28962e-23)
(-0.0312964 0.0168808 3.88394e-23)
(-0.0323935 0.0128392 1.23219e-21)
(-0.0332718 0.00874821 1.15391e-21)
(-0.0339199 0.0046475 3.74152e-23)
(-0.034342 0.000579824 -2.98105e-22)
(-0.0345628 -0.00341192 0)
(-0.0346318 -0.0072862 -5.92983e-22)
(-0.0346305 -0.0110035 -2.31405e-21)
(-0.0346858 -0.0145256 -1.97745e-23)
(-0.0349826 -0.0178099 -2.2722e-21)
(-0.0358116 -0.0207982 -6.79436e-23)
(-0.0375606 -0.023382 6.40223e-23)
(-0.0408587 -0.0253682 -2.70061e-22)
(-0.0462589 -0.0263901 1.72416e-21)
(-0.0547136 -0.0259592 -4.21704e-23)
(-0.0657107 -0.0235091 5.50594e-24)
(-0.0797185 -0.0187877 -1.8016e-22)
(-0.0933825 -0.0126566 4.14304e-23)
(-0.105537 -0.00543539 -2.13756e-21)
(-0.119665 -0.000974409 0)
(-0.0193527 0.0716763 0)
(-0.0170791 0.0639161 4.92443e-21)
(-0.0190031 0.0569206 0)
(-0.0200219 0.0503854 0)
(-0.0224678 0.0447665 -7.00589e-23)
(-0.0247524 0.0397934 7.75877e-23)
(-0.0270731 0.0353693 7.41271e-23)
(-0.0291524 0.031187 2.33904e-21)
(-0.0310293 0.0270664 -2.48813e-21)
(-0.0327015 0.0228847 2.53916e-21)
(-0.0341743 0.0186045 -2.40413e-21)
(-0.035435 0.0142307 -2.85801e-23)
(-0.036468 0.00979462 3.79595e-23)
(-0.0372658 0.00533806 -6.0952e-22)
(-0.0378364 0.000907591 -3.09198e-22)
(-0.03821 -0.00344909 -1.79775e-23)
(-0.0384448 -0.00768464 -1.75611e-23)
(-0.0386348 -0.0117521 8.42909e-23)
(-0.038925 -0.0156028 -1.11876e-21)
(-0.0395248 -0.0191783 6.54585e-23)
(-0.0407527 -0.0223952 -6.32682e-23)
(-0.0430213 -0.0251078 -5.62984e-23)
(-0.0469548 -0.027075 -2.38508e-22)
(-0.0530409 -0.0278854 -1.07365e-21)
(-0.0620644 -0.0270511 0)
(-0.0732415 -0.0240723 0)
(-0.0869531 -0.0189041 1.6711e-22)
(-0.0994835 -0.0124825 1.9223e-21)
(-0.111023 -0.00531618 1.04791e-21)
(-0.122867 -0.000823833 3.66034e-24)
(-0.021205 0.0755902 -2.36614e-22)
(-0.018882 0.0679364 -2.56102e-21)
(-0.0207215 0.0609545 0)
(-0.0217715 0.054317 0)
(-0.0242463 0.0484852 0)
(-0.0266768 0.0432269 7.67537e-23)
(-0.0291864 0.0384829 -1.60419e-22)
(-0.0314902 0.0339782 4.99204e-24)
(-0.0335874 0.0295387 2.56785e-21)
(-0.035467 0.025038 -2.39629e-21)
(-0.0371311 0.0204313 2.45408e-21)
(-0.0385708 0.0157196 -1.25217e-21)
(-0.0397746 0.0109331 -1.16258e-21)
(-0.0407391 0.00611593 4.37563e-24)
(-0.0414772 0.00131858 4.74095e-24)
(-0.0420254 -0.0034059 2.7897e-22)
(-0.042451 -0.00800334 0)
(-0.0428609 -0.0124177 1.09399e-21)
(-0.0434175 -0.0165877 0)
(-0.0443523 -0.0204359 0)
(-0.0460048 -0.023851 0)
(-0.0487993 -0.026649 -4.77582e-23)
(-0.0533331 -0.0285456 -2.68441e-22)
(-0.0600053 -0.0291005 1.80571e-21)
(-0.0694219 -0.0278494 2.824e-22)
(-0.080567 -0.0243827 -7.07363e-22)
(-0.0937812 -0.0188521 -9.43588e-22)
(-0.105106 -0.0122351 -1.9184e-21)
(-0.11595 -0.00516627 9.29541e-22)
(-0.125547 -0.000661005 4.39344e-22)
(-0.0231428 0.0794908 2.40367e-22)
(-0.0207829 0.0719666 0)
(-0.0225323 0.0650236 1.96922e-21)
(-0.0236111 0.0583118 0)
(-0.026103 0.0522949 0)
(-0.0286619 0.0467721 2.70469e-21)
(-0.0313463 0.0417178 0)
(-0.0338682 0.0368909 0)
(-0.0361887 0.0321275 6.97099e-23)
(-0.0382848 0.0273016 0)
(-0.0401526 0.0223628 2.58342e-21)
(-0.041785 0.0173086 -7.73684e-23)
(-0.0431744 0.0121683 3.8516e-23)
(-0.0443219 0.00698797 5.90006e-22)
(-0.0452456 0.00182244 5.09857e-24)
(-0.0459887 -0.00326929 -8.04386e-24)
(-0.0466279 -0.00822518 0)
(-0.0472828 -0.0129786 0)
(-0.0481319 -0.0174533 9.21319e-22)
(-0.0494246 -0.0215505 0)
(-0.0515135 -0.0251296 0)
(-0.0548201 -0.0279694 -1.22113e-21)
(-0.0598955 -0.0297507 -1.19309e-21)
(-0.067034 -0.0300205 -4.02454e-22)
(-0.0766643 -0.0283591 -2.86438e-22)
(-0.0875848 -0.0244618 7.06991e-22)
(-0.100138 -0.0186556 9.82765e-22)
(-0.110212 -0.0119267 9.84194e-24)
(-0.120295 -0.00498839 -1.02742e-21)
(-0.127689 -0.000487005 -4.62824e-22)
(-0.0251603 0.0833639 0)
(-0.0227782 0.0759931 0)
(-0.0244317 0.0691139 -2.02516e-21)
(-0.0255378 0.0623551 0)
(-0.0280363 0.0561807 2.72891e-21)
(-0.0307075 0.050416 -2.65905e-21)
(-0.0335512 0.0450643 -2.8351e-21)
(-0.0362819 0.0399187 -8.93652e-23)
(-0.0388245 0.0348293 -2.75502e-21)
(-0.0411425 0.029674 -2.67245e-21)
(-0.0432234 0.0243992 -2.51423e-21)
(-0.0450603 0.0189995 -1.17972e-21)
(-0.0466485 0.0135038 -3.88582e-23)
(-0.0479935 0.00796025 -5.64498e-22)
(-0.0491189 0.0024281 2.65624e-22)
(-0.0500749 -0.00302696 -5.53124e-22)
(-0.0509475 -0.00833393 5.13471e-22)
(-0.0518681 -0.0134141 -9.53804e-22)
(-0.0530288 -0.0181744 -5.20328e-23)
(-0.0546919 -0.0224934 0)
(-0.0572142 -0.0262005 -3.91583e-23)
(-0.0610002 -0.0290414 1.29679e-21)
(-0.066539 -0.0306715 -5.65289e-22)
(-0.0740119 -0.0306421 -3.65952e-22)
(-0.0836812 -0.0285945 5.44656e-22)
(-0.0942084 -0.0243342 1.63721e-21)
(-0.105972 -0.0183367 -4.25257e-23)
(-0.11477 -0.011567 3.3012e-21)
(-0.124039 -0.00478466 9.51753e-22)
(-0.129274 -0.000303069 0)
(-0.0272498 0.0871941 -1.26333e-23)
(-0.0248624 0.0800006 -1.51208e-21)
(-0.0264145 0.0732105 -2.35825e-21)
(-0.0275467 0.0664315 -2.90068e-21)
(-0.0300427 0.0601266 -5.66537e-21)
(-0.0328109 0.0541438 3.05702e-21)
(-0.035798 0.0485104 2.76647e-21)
(-0.0387254 0.0430531 -8.6741e-23)
(-0.0414856 0.0376387 1.75792e-22)
(-0.0440271 0.032152 5.36249e-21)
(-0.0463273 0.0265392 -2.61876e-21)
(-0.0483778 0.020793 1.22263e-21)
(-0.0501757 0.0149423 0)
(-0.0517305 0.0090377 5.66633e-22)
(-0.0530713 0.00314332 1.77748e-23)
(-0.0542552 -0.00266789 2.48533e-23)
(-0.0553769 -0.00831495 -5.14519e-22)
(-0.0565781 -0.0137057 9.01417e-22)
(-0.0580615 -0.0187292 -1.58493e-21)
(-0.0600963 -0.0232402 1.33187e-21)
(-0.0630342 -0.0270399 1.00051e-21)
(-0.0672503 -0.0298461 -1.09779e-23)
(-0.0731597 -0.0312995 5.39084e-22)
(-0.0808297 -0.0309717 -4.2056e-22)
(-0.0903745 -0.0285755 -5.96319e-22)
(-0.100365 -0.0240252 -1.63774e-21)
(-0.11124 -0.0179147 2.04575e-21)
(-0.118753 -0.0111633 -7.123e-21)
(-0.127163 -0.00455696 -1.95242e-21)
(-0.130285 -0.000110599 0)
(-0.0294014 0.0909647 -1.42491e-23)
(-0.0270283 0.0839727 -1.46691e-23)
(-0.0284738 0.0772968 2.42386e-21)
(-0.0296313 0.0705239 -1.02013e-22)
(-0.0321167 0.0641156 -1.22937e-22)
(-0.0349675 0.0579392 1.4306e-23)
(-0.0380817 0.052042 7.14289e-24)
(-0.0411919 0.0462832 -2.84746e-21)
(-0.0441615 0.0405477 -1.82091e-22)
(-0.0469246 0.0347306 -5.5229e-21)
(-0.0494469 0.0287797 5.39292e-21)