/*--------------------------------*- C++ -*----------------------------------*\
| =========                 |                                                 |
| \\      /  F ield         | OpenFOAM: The Open Source CFD Toolbox           |
|  \\    /   O peration     | Version:  5.x                                   |
|   \\  /    A nd           | Web:      www.OpenFOAM.org                      |
|    \\/     M anipulation  |                                                 |
\*---------------------------------------------------------------------------*/
FoamFile
{
    version     2.0;
    format      ascii;
    class       volScalarField;
    location    "0.01";
    object      p;
}
// * * * * * * * * * * * * * * * * * * * * * * * * * * * * * * * * * * * * * //

dimensions      [0 2 -2 0 0 0 0];

internalField   nonuniform List<scalar> 
7200
(
8.42786e-05
-0.0305799
-0.0304539
0.0640134
0.207202
0.344565
0.469719
0.591686
0.707898
0.798568
0.834812
0.79101
0.65556
0.43564
0.15661
-0.143731
-0.422989
-0.643413
-0.779621
-0.824265
-0.788691
-0.698362
-0.582187
-0.460078
-0.334725
-0.197195
-0.0539501
0.0403586
0.0400715
0.00929394
-0.0051502
-0.0381242
-0.0138455
0.103973
0.247484
0.37301
0.48532
0.593579
0.69296
0.764591
0.784098
0.731582
0.599503
0.395621
0.142106
-0.129217
-0.382937
-0.58728
-0.720078
-0.773428
-0.75463
-0.683405
-0.584116
-0.475743
-0.363236
-0.237523
-0.0939239
0.0237974
0.047638
0.0145036
-0.0119639
-0.0414779
0.0103822
0.144319
0.281083
0.392958
0.492193
0.586167
0.668625
0.722534
0.727919
0.669649
0.543171
0.356242
0.127974
-0.115064
-0.34351
-0.530853
-0.658004
-0.717095
-0.712455
-0.659019
-0.576714
-0.482663
-0.383243
-0.271176
-0.134312
-0.000440612
0.051043
0.0213281
-0.020405
-0.0392599
0.0409556
0.183357
0.30896
0.407218
0.494105
0.574671
0.642083
0.681293
0.675931
0.614381
0.494056
0.322384
0.115908
-0.102963
-0.309593
-0.481634
-0.602587
-0.664943
-0.67108
-0.632404
-0.565208
-0.484606
-0.397553
-0.299108
-0.1734
-0.0310396
0.0488738
0.0297964
-0.0301426
-0.0301104
0.0772821
0.220877
0.332399
0.417295
0.492226
0.559997
0.613767
0.640417
0.626583
0.563363
0.449531
0.292027
0.10515
-0.0921586
-0.279166
-0.436999
-0.551415
-0.615422
-0.630056
-0.604
-0.550511
-0.48275
-0.407679
-0.322609
-0.210983
-0.0674015
0.0397667
0.0395702
-0.0403008
-0.0126816
0.11792
0.255458
0.351179
0.423263
0.486635
0.542293
0.583766
0.599725
0.579306
0.515703
0.408619
0.264413
0.0954168
-0.0823663
-0.251473
-0.395969
-0.503597
-0.567967
-0.589208
-0.573898
-0.532771
-0.477174
-0.413693
-0.341456
-0.245636
-0.10808
0.0223759
0.0497696
-0.0494862
0.0138451
0.160798
0.285692
0.36513
0.425195
0.477516
0.521922
0.552521
0.559569
0.534238
0.471315
0.371099
0.239329
0.0866199
-0.0734997
-0.2263
-0.358326
-0.459047
-0.522718
-0.548886
-0.54254
-0.512352
-0.468063
-0.415672
-0.355476
-0.275947
-0.151004
-0.00411715
0.0590039
-0.055843
0.0495318
0.203534
0.310607
0.374382
0.423307
0.465179
0.499334
0.520498
0.520278
0.491482
0.430082
0.336736
0.216557
0.0786728
-0.0654722
-0.203431
-0.323834
-0.417648
-0.479774
-0.50942
-0.510391
-0.489705
-0.455727
-0.413829
-0.364801
-0.300942
-0.193794
-0.0397783
0.0654206
-0.0571183
0.0935835
0.243663
0.329685
0.379227
0.417851
0.449974
0.474973
0.4881
0.482093
0.451057
0.391833
0.305268
0.195872
0.0714874
-0.0581964
-0.18264
-0.292232
-0.379229
-0.439155
-0.471051
-0.477855
-0.465273
-0.440515
-0.408416
-0.369718
-0.320102
-0.233984
-0.0838181
0.0667688
-0.0507722
0.14431
0.278867
0.342843
0.380027
0.409094
0.432275
0.449265
0.455682
0.445206
0.412955
0.356398
0.276457
0.177073
0.0649863
-0.0515956
-0.163729
-0.26328
-0.343618
-0.400852
-0.433969
-0.445286
-0.439479
-0.4228
-0.399697
-0.370588
-0.333338
-0.269258
-0.134553
0.0605079
-0.0341301
0.199172
0.3072
0.350389
0.377161
0.397322
0.41248
0.422613
0.423557
0.409766
0.377146
0.323613
0.250087
0.159986
0.059102
-0.0456029
-0.14652
-0.236763
-0.310653
-0.364837
-0.398325
-0.412996
-0.41273
-0.402978
-0.387958
-0.367788
-0.340959
-0.297669
-0.189447
0.04396
-0.00456298
0.254907
0.327287
0.352943
0.370985
0.382846
0.390993
0.395394
0.391993
0.375889
0.34359
0.293323
0.225964
0.144452
0.0537749
-0.0401596
-0.130859
-0.212488
-0.280178
-0.331067
-0.364233
-0.381254
-0.385399
-0.381455
-0.373507
-0.361673
-0.343584
-0.317836
-0.245244
0.0144908
0.0403177
0.307746
0.33846
0.351321
0.361805
0.366006
0.368222
0.367951
0.36122
0.343657
0.312228
0.265379
0.203908
0.130333
0.0489523
-0.0352135
-0.116606
-0.190275
-0.252043
-0.299487
-0.331777
-0.350289
-0.357829
-0.358632
-0.356681
-0.352547
-0.342027
-0.329088
-0.298173
-0.0302951
0.102471
0.353676
0.340828
0.346405
0.34987
0.347172
0.344556
0.340588
0.331427
0.313126
0.282997
0.239636
0.183758
0.117504
0.0445874
-0.0307188
-0.103637
-0.169965
-0.226107
-0.270031
-0.301011
-0.32029
-0.330324
-0.334902
-0.337849
-0.340657
-0.337169
-0.33153
-0.34422
-0.0923638
0.183259
0.388752
0.335265
0.339016
0.335387
0.326745
0.320365
0.313574
0.30277
0.284327
0.255825
0.215961
0.165367
0.105852
0.0406387
-0.0266346
-0.0918414
-0.151409
-0.202235
-0.242628
-0.271968
-0.291413
-0.303151
-0.310628
-0.317409
-0.326209
-0.329831
-0.326031
-0.379432
-0.173085
0.283323
0.4094
0.323316
0.329808
0.318546
0.305146
0.295979
0.287139
0.275372
0.257272
0.230634
0.194226
0.148601
0.0952788
0.0370691
-0.0229245
-0.0811194
-0.134474
-0.1803
-0.217202
-0.24466
-0.263781
-0.27654
-0.286143
-0.295781
-0.30939
-0.320667
-0.314132
-0.40023
-0.273103
0.402505
0.412702
0.307039
0.319189
0.299556
0.282806
0.271691
0.261482
0.249328
0.231956
0.207345
0.174309
0.133335
0.0856931
0.0338457
-0.0195563
-0.071382
-0.119039
-0.160182
-0.193675
-0.219083
-0.237489
-0.250689
-0.261737
-0.273394
-0.290409
-0.310084
-0.297889
-0.403687
-0.392268
0.539844
0.396626
0.288793
0.30729
0.278684
0.260146
0.247749
0.236769
0.224709
0.208363
0.185877
0.156097
0.119459
0.0770143
0.0309387
-0.0165008
-0.0625485
-0.104991
-0.141768
-0.171965
-0.195221
-0.212608
-0.225762
-0.237657
-0.250668
-0.269529
-0.298215
-0.279661
-0.387761
-0.529618
0.693618
0.360171
0.271011
0.293976
0.256279
0.237556
0.22436
0.213137
0.20156
0.186461
0.166147
0.139482
0.106869
0.0691691
0.0283216
-0.0137323
-0.0545464
-0.0922293
-0.124951
-0.151993
-0.173045
-0.189184
-0.201898
-0.214108
-0.227992
-0.247098
-0.284922
-0.26188
-0.351442
-0.683433
0.861452
0.303424
0.25596
0.278896
0.232789
0.215374
0.201693
0.190698
0.179908
0.166213
0.148072
0.124365
0.0954707
0.0620909
0.0259703
-0.0112273
-0.0473099
-0.0806591
-0.109632
-0.133676
-0.152517
-0.167245
-0.179208
-0.191257
-0.205702
-0.223562
-0.269853
-0.246815
-0.294811
-0.851335
1.04047
0.227527
0.245546
0.261561
0.20876
0.193868
0.179884
0.169541
0.159762
0.147573
0.131572
0.110648
0.0851777
0.0557193
0.0238631
-0.00896457
-0.0407791
-0.0701945
-0.0957169
-0.116934
-0.133594
-0.146801
-0.157779
-0.169241
-0.184065
-0.199467
-0.252519
-0.236373
-0.219003
-1.03045
1.22748
0.13455
0.241157
0.241451
0.184818
0.173224
0.159049
0.149731
0.141118
0.13049
0.116566
0.098243
0.0759096
0.0499993
0.0219803
-0.00692511
-0.0348994
-0.0607561
-0.0831157
-0.10169
-0.116225
-0.127847
-0.137679
-0.148175
-0.163265
-0.175434
-0.232395
-0.231947
-0.126084
-1.21756
1.41914
0.0272988
0.243577
0.218112
0.161627
0.15354
0.139289
0.131311
0.123955
0.114907
0.102975
0.0870644
0.0675922
0.0448802
0.0203038
-0.00509147
-0.029621
-0.0522702
-0.0717449
-0.0878636
-0.100358
-0.110368
-0.118951
-0.128158
-0.143401
-0.152129
-0.209026
-0.23432
-0.0188565
-1.40935
1.61218
-0.0909239
0.252961
0.191248
0.13985
0.134836
0.120696
0.114303
0.108247
0.100765
0.0907207
0.0770322
0.0601569
0.0403159
0.0188172
-0.00344774
-0.024898
-0.0446687
-0.0615248
-0.0753801
-0.0859331
-0.0943367
-0.101617
-0.109284
-0.12449
-0.130211
-0.182111
-0.243652
0.0993756
-1.60252
1.80352
-0.216574
0.268887
0.160788
0.120093
0.117061
0.10336
0.0987058
0.0939576
0.088001
0.0797282
0.0680704
0.0535395
0.0362635
0.0175055
-0.00197937
-0.0206881
-0.037888
-0.0523804
-0.0641651
-0.072891
-0.0797195
-0.0856791
-0.0916417
-0.106482
-0.110287
-0.151578
-0.259518
0.225067
-1.79399
1.99043
-0.346111
0.290448
0.126922
0.10286
0.100118
0.0873698
0.0844993
0.0810445
0.0765511
0.0699239
0.0601069
0.0476807
0.0326835
0.0163547
-0.000672971
-0.0169524
-0.0318692
-0.0442402
-0.054146
-0.0611688
-0.0664777
-0.0711191
-0.0753206
-0.0892778
-0.092859
-0.117614
-0.281012
0.354676
-1.98102
2.17059
-0.476217
0.31639
0.090102
0.088511
0.0838869
0.0728085
0.0716434
0.0694628
0.0663482
0.0612364
0.0530735
0.0425245
0.0295394
0.0153521
0.000483819
-0.0136546
-0.0265567
-0.0370363
-0.0452527
-0.0507019
-0.0545688
-0.0578994
-0.0604061
-0.0727564
-0.0782869
-0.0806644
-0.306878
0.484879
-2.16129
2.34213
-0.603953
0.345265
0.0510066
0.0772418
0.0682459
0.0597522
0.0600816
0.0591649
0.0573241
0.0535965
0.0469051
0.038019
0.026797
0.0144856
0.00150243
-0.010761
-0.0218987
-0.0307042
-0.0374167
-0.0414241
-0.0439483
-0.0459669
-0.0469762
-0.0567968
-0.0667651
-0.0414081
-0.335666
0.612736
-2.33293
2.50365
-0.726876
0.375577
0.0104884
0.0690729
0.0530972
0.0482622
0.049744
0.0501016
0.0494096
0.0469374
0.0415398
0.034115
0.0244245
0.0137444
0.00239349
-0.00824014
-0.0178466
-0.025182
-0.030572
-0.0332677
-0.0345701
-0.0352552
-0.035095
-0.0413013
-0.0583141
-0.000694987
-0.365877
0.7358
-2.49451
2.65416
-0.843077
0.405915
-0.0305004
0.0638609
0.0383815
0.0383785
0.0405516
0.042223
0.0425344
0.0411945
0.0369184
0.0307664
0.0223922
0.013118
0.00316693
-0.00606267
-0.0143543
-0.0204109
-0.0246544
-0.0261643
-0.0263873
-0.0256893
-0.0248063
-0.026212
-0.0527906
0.0405247
-0.396094
0.852161
-2.64506
2.79303
-0.951186
0.435049
-0.0709862
0.0613226
0.0240888
0.0301137
0.0324208
0.0354778
0.0366285
0.0363055
0.0329844
0.0279297
0.0206721
0.0125968
0.00383201
-0.00420089
-0.0113785
-0.0163344
-0.019602
-0.0200448
-0.0193515
-0.01719
-0.0161267
-0.0115209
-0.0499117
0.081278
-0.425086
0.960446
-2.78394
2.91995
-1.05032
0.461997
-0.110046
0.0610706
0.0102598
0.0234482
0.025268
0.0298134
0.0316216
0.0322106
0.029684
0.0255638
0.0192379
0.0121718
0.00439741
-0.0026288
-0.00887813
-0.0128984
-0.0153548
-0.01484
-0.0134127
-0.00967781
-0.00904174
0.00272813
-0.049291
0.120643
-0.451864
1.05977
-2.91083
3.03483
-1.14001
0.486048
-0.146869
0.0626535
-0.00301846
0.0183287
0.0190134
0.0251752
0.0274447
0.0288518
0.0269653
0.0236298
0.0180649
0.0118346
0.0048713
-0.00132189
-0.00681447
-0.0100512
-0.0118548
-0.0104814
-0.00851878
-0.0030772
-0.00350339
0.016444
-0.0504791
0.157806
-0.475714
1.14968
-3.02564
3.13777
-1.22014
0.506758
-0.180796
0.0655981
-0.0156239
0.0146686
0.0135845
0.0215058
0.0240301
0.0261731
0.024779
0.0220907
0.0171296
0.011577
0.0052614
-0.000256994
-0.00515058
-0.00774296
-0.00904562
-0.00690137
-0.00461392
0.00268038
0.000569145
0.0294994
-0.0530052
0.19211
-0.49619
1.23003
-3.12847
3.22894
-1.29081
0.523923
-0.211344
0.0694455
-0.0274134
0.012352
0.00891803
0.0187446
0.0213123
0.0241203
0.0230778
0.0209113
0.01641
0.0113915
0.00557498
0.000587786
-0.00385138
-0.00592626
-0.00687259
-0.00403424
-0.00163876
0.00765475
0.00328618
0.0417455
-0.0564144
0.223067
-0.513085
1.30096
-3.21951
3.30865
-1.35231
0.537531
-0.23821
0.0737811
-0.0382387
0.0112394
0.00496084
0.0168271
0.0192284
0.0226409
0.0218163
0.0200583
0.0158852
0.0112711
0.00581894
0.0012332
-0.00288352
-0.00455558
-0.00528251
-0.00181653
0.000470395
0.0118959
0.0047816
0.0530271
-0.0602969
0.250371
-0.526389
1.36274
-3.29902
3.37719
-1.40505
0.54772
-0.261255
0.0782546
-0.0479613
0.0111751
0.00166978
0.0156854
0.0177187
0.0216837
0.0209516
0.0194998
0.0155352
0.0112089
0.00599985
0.00169889
-0.00221517
-0.00358748
-0.0042235
-0.000187637
0.00178149
0.0154449
0.00520598
0.0631991
-0.0643081
0.27388
-0.536237
1.41578
-3.36734
3.43492
-1.44947
0.554721
-0.280487
0.0825903
-0.0564657
0.0119954
-0.000989746
0.0152482
0.0167266
0.0211988
0.0204423
0.0192055
0.0153413
0.0111985
0.00612391
0.00200347
-0.00181596
-0.00298054
-0.00364497
0.00090998
0.0023664
0.0183349
0.00471865
0.0721388
-0.0681793
0.293594
-0.542867
1.46054
-3.4248
3.48218
-1.48606
0.558825
-0.296025
0.0865889
-0.0636677
0.0135366
-0.00304576
0.0154415
0.0161994
0.0211375
0.0202494
0.0191462
0.0152858
0.0112337
0.00619707
0.00216459
-0.00165689
-0.00269533
-0.00349742
0.00153041
0.00230016
0.0205933
0.00347976
0.0797552
-0.0717183
0.309629
-0.546569
1.49748
-3.47175
3.51934
-1.51529
0.560342
-0.308076
0.0901226
-0.0695202
0.0156416
-0.00452224
0.0161896
0.0160877
0.0214521
0.0203356
0.0192943
0.0153517
0.0113089
0.00622499
0.00219897
-0.00171027
-0.00269451
-0.00373256
0.00172442
0.00165994
0.0222443
0.00164382
0.0859954
-0.0748048
0.322182
-0.547661
1.52711
-3.50856
3.54675
-1.53766
0.559583
-0.316899
0.0931244
-0.0740143
0.0181661
-0.00544162
0.0174164
0.0163454
0.0220964
0.0206659
0.0196232
0.0155233
0.0114184
0.00621305
0.00212244
-0.00194956
-0.00294265
-0.0043033
0.0015394
0.000523697
0.0233115
-0.000646058
0.0908453
-0.0773796
0.331505
-0.546461
1.54989
-3.53558
3.56477
-1.55363
0.556844
-0.322787
0.0955765
-0.0771772
0.0209819
-0.00582724
0.0190464
0.0169296
0.0230249
0.0212068
0.0201076
0.0157854
0.011557
0.00616638
0.00194995
-0.00234952
-0.00340627
-0.00516383
0.00101977
-0.00103112
0.0238199
-0.00326185
0.0943281
-0.0794316
0.337883
-0.543273
1.56629
-3.55319
3.57375
-1.56365
0.552399
-0.326042
0.0974971
-0.0790676
0.0239792
-0.00570516
0.0210065
0.0177997
0.024194
0.0219269
0.0207234
0.0161238
0.0117198
0.00608995
0.00169562
-0.00288598
-0.00405383
-0.00626973
0.000207098
-0.00292908
0.0237979
-0.00609283
0.0965004
-0.080985
0.341609
-0.538376
1.57676
-3.56172
3.57405
-1.56815
0.546492
-0.326965
0.0989282
-0.0797702
0.027067
-0.00510565
0.0232262
0.0189178
0.025561
0.0227966
0.0214475
0.0165252
0.0119019
0.00598841
0.00137276
-0.0035359
-0.00485559
-0.0075782
-0.000859392
-0.00509785
0.0232785
-0.00904595
0.0974457
-0.0820864
0.342978
-0.532028
1.58172
-3.56155
3.566
-1.56754
0.539345
-0.325843
0.0999255
-0.0793886
0.0301724
-0.00406384
0.0256398
0.0202476
0.0270854
0.023788
0.0222581
0.0169771
0.0120989
0.00586622
0.000993957
-0.00427743
-0.00578361
-0.00904822
-0.00214252
-0.00746942
0.0222997
-0.0120456
0.0972683
-0.0827947
0.34227
-0.524455
1.58158
-3.55302
3.54994
-1.56223
0.531151
-0.322946
0.10055
-0.0780392
0.0332386
-0.00261998
0.0281858
0.0217543
0.0287282
0.0248748
0.0231343
0.0174675
0.0123065
0.0057276
0.000570993
-0.00508981
-0.0068116
-0.0106407
-0.00360677
-0.00998073
0.0209045
-0.0150315
0.0960864
-0.0831725
0.33975
-0.515862
1.57674
-3.53647
3.52618
-1.55258
0.522084
-0.318522
0.100863
-0.0758448
0.0362228
-0.000818953
0.0308085
0.0234045
0.0304528
0.0260325
0.0240567
0.0179855
0.0125208
0.00557658
0.000114922
-0.00595347
-0.00791491
-0.0123186
-0.00521808
-0.0125743
0.0191407
-0.0179573
0.0940258
-0.0832803
0.335663
-0.506427
1.56754
-3.51223
3.49505
-1.53893
0.512295
-0.312797
0.10092
-0.0729301
0.0390932
0.00129032
0.0334575
0.0251656
0.0322245
0.027238
0.0250067
0.0185207
0.012738
0.00541692
-0.000363923
-0.00684991
-0.00907043
-0.0140475
-0.00694343
-0.0151986
0.0170599
-0.0207873
0.091215
-0.0831725
0.330234
-0.496307
1.55433
-3.48062
3.45684
-1.52162
0.501914
-0.305977
0.100771
-0.0694175
0.0418269
0.00365605
0.0360881
0.0270061
0.0340113
0.0284696
0.0259673
0.0190636
0.0129546
0.0052522
-0.000855886
-0.00776192
-0.0102565
-0.0157949
-0.00875104
-0.0178078
0.0147159
-0.0234949
0.0877805
-0.0828952
0.323667
-0.485635
1.53743
-3.44195
3.41184
-1.50094
0.491056
-0.298244
0.100456
-0.0654242
0.0444072
0.00622463
0.0386608
0.0288953
0.0357835
0.0297072
0.0269223
0.0196052
0.0131673
0.00508571
-0.001352
-0.00867344
-0.011453
-0.0175314
-0.0106101
-0.0203617
0.0121643
-0.0260602
0.0838441
-0.0824856
0.316149
-0.474528
1.51714
-3.39653
3.36035
-1.47716
0.479816
-0.289762
0.100009
-0.0610599
0.046822
0.00894199
0.0411414
0.0308036
0.037514
0.0309319
0.0278571
0.0201373
0.0133732
0.00492056
-0.00184397
-0.00956962
-0.012641
-0.0192297
-0.0124906
-0.0228254
0.00946068
-0.0284677
0.07952
-0.0819717
0.307845
-0.463081
1.49371
-3.34464
3.30263
-1.45052
0.468274
-0.280676
0.0994542
-0.0564262
0.0490617
0.0117547
0.0435004
0.0327024
0.0391784
0.0321264
0.028758
0.0206525
0.0135696
0.00475958
-0.00232415
-0.0104369
-0.013803
-0.0208654
-0.0143642
-0.0251692
0.00665957
-0.0307054
0.0749136
-0.0813728
0.298904
-0.451372
1.46739
-3.28656
3.23895
-1.42126
0.456496
-0.271114
0.0988077
-0.0516152
0.0511182
0.0146109
0.0457124
0.0345643
0.0407549
0.0332745
0.029613
0.0211437
0.0137539
0.00460535
-0.00278553
-0.0112629
-0.0149229
-0.0224166
-0.0162035
-0.0273674
0.00381352
-0.0327633
0.0701209
-0.0807006
0.28946
-0.439462
1.43842
-3.22256
3.16957
-1.38957
0.44453
-0.261187
0.0980795
-0.0467098
0.0529843
0.0174616
0.0477562
0.0363636
0.0422242
0.0343616
0.0304109
0.0216049
0.013924
0.00446022
-0.00322176
-0.0120365
-0.0159859
-0.0238641
-0.0179827
-0.0293988
0.000972218
-0.0346324
0.0652278
-0.0799603
0.279629
-0.427397
1.40698
-3.15291
3.09475
-1.35563
0.432413
-0.250994
0.0972731
-0.0417835
0.0546529
0.0202609
0.0496139
0.0380762
0.0435696
0.0353742
0.0311422
0.0220303
0.0140779
0.00432624
-0.00362708
-0.0127479
-0.0169785
-0.0251911
-0.0196777
-0.0312453
-0.00181829
-0.0363045
0.0603101
-0.0791511
0.269514
-0.415207
1.37327
-3.07784
3.01472
-1.31961
0.420168
-0.240618
0.0963866
-0.0369008
0.0561169
0.0229671
0.0512706
0.0396799
0.0447768
0.0363003
0.0317984
0.0224151
0.014214
0.00420531
-0.00399643
-0.0133887
-0.0178886
-0.0263833
-0.0212664
-0.0328923
-0.00451599
-0.0377718
0.0554344
-0.0782678
0.259201
-0.402911
1.33744
-2.99761
2.92972
-1.28163
0.407806
-0.23013
0.0954139
-0.0321178
0.0573691
0.0255424
0.0527145
0.0411547
0.0458341
0.0371295
0.0323723
0.0227549
0.0143309
0.00409897
-0.00432534
-0.0139514
-0.0187056
-0.0274288
-0.0227287
-0.0343278
-0.00708332
-0.0390266
0.0506581
-0.077301
0.248767
-0.390514
1.29964
-2.91244
2.83997
-1.24182
0.395327
-0.21959
0.0943449
-0.0274823
0.0584025
0.027954
0.0539363
0.0424828
0.0467319
0.0378525
0.032858
0.0230461
0.0144275
0.00400853
-0.00460997
-0.0144299
-0.0194202
-0.028318
-0.024047
-0.0355426
-0.00948731
-0.0400615
0.0460298
-0.0762384
0.238275
-0.378012
1.25999
-2.82256
2.74571
-1.20029
0.382721
-0.209048
0.0931664
-0.0230348
0.0592101
0.0301735
0.0549289
0.0436489
0.0474629
0.0384617
0.033251
0.0232857
0.0145029
0.00393504
-0.0048471
-0.0148196
-0.0200246
-0.0290436
-0.025206
-0.0365298
-0.0116998
-0.0408696
0.0415905
-0.0750655
0.227776
-0.365389
1.2186
-2.72818
2.64713
-1.15713
0.369968
-0.198544
0.0918631
-0.0188086
0.0597854
0.0321772
0.0556876
0.0446405
0.0480221
0.038951
0.0335476
0.0234714
0.0145564
0.00387932
-0.00503421
-0.0151167
-0.0205126
-0.0296003
-0.0261929
-0.0372846
-0.0136973
-0.0414443
0.0373737
-0.0737654
0.217312
-0.352623
1.17556
-2.6295
2.54444
-1.1124
0.357039
-0.188109
0.0904179
-0.0148307
0.0601228
0.0339465
0.05621
0.0454477
0.0484063
0.0393157
0.0337458
0.0236013
0.0145878
0.0038419
-0.00516936
-0.015319
-0.0208793
-0.029985
-0.0269978
-0.0378046
-0.0154611
-0.0417802
0.0334063
-0.0723203
0.206916
-0.339682
1.13095
-2.52673
2.43785
-1.06619
0.343901
-0.177767
0.0888123
-0.0111221
0.0602177
0.0354669
0.0564956
0.0460631
0.0486147
0.0395527
0.0338444
0.0236743
0.0145969
0.00382311
-0.00525128
-0.015425
-0.0211215
-0.0301965
-0.0276136
-0.0380895
-0.0169771
-0.0418727
0.0297092
-0.0707115
0.196613
-0.326527
1.08484
-2.42007
2.32754
-1.01854
0.330512
-0.167536
0.0870276
-0.00769816
0.0600667
0.0367287
0.0565463
0.0464824
0.0486481
0.0396606
0.0338436
0.0236902
0.0145839
0.00382298
-0.00527937
-0.0154348
-0.0212377
-0.0302359
-0.0280356
-0.0381411
-0.0182356
-0.0417188
0.0262974
-0.0689198
0.186419
-0.313118
1.03729
-2.3097
2.21372
-0.9695
0.316825
-0.157429
0.0850448
-0.00456968
0.0596686
0.0377264
0.056366
0.0467042
0.0485097
0.0396396
0.0337445
0.023649
0.0145492
0.00384134
-0.00525366
-0.0153495
-0.0212279
-0.0301059
-0.0282624
-0.0379633
-0.0192314
-0.0413173
0.0231813
-0.0669266
0.176349
-0.299404
0.988344
-2.19582
2.09656
-0.919121
0.302793
-0.147454
0.0828458
-0.00174283
0.0590238
0.0384589
0.0559613
0.0467296
0.0482041
0.0394913
0.0335496
0.0235517
0.0144932
0.00387778
-0.00517481
-0.0151712
-0.0210935
-0.0298113
-0.0282951
-0.0375627
-0.0199632
-0.040669
0.0203666
-0.0647136
0.166409
-0.285338
0.938053
-2.07861
1.97628
-0.86745
0.288364
-0.137619
0.0804136
0.000780084
0.0581356
0.0389287
0.0553409
0.0465628
0.0477382
0.039219
0.0332623
0.0233997
0.0144169
0.00393164
-0.00504419
-0.0149032
-0.0208378
-0.0293587
-0.0281379
-0.0369478
-0.020434
-0.0397772
0.0178551
-0.0622644
0.156607
-0.270868
0.886464
-1.95827
1.85308
-0.814541
0.273492
-0.127931
0.0777339
0.00300016
0.0570099
0.0391425
0.0545159
0.0462107
0.0471207
0.0388277
0.0328871
0.0231952
0.0143214
0.00400206
-0.00486377
-0.01455
-0.0204656
-0.0287567
-0.0277974
-0.0361301
-0.0206503
-0.0386482
0.0156454
-0.0595648
0.146949
-0.255945
0.833633
-1.83501
1.72718
-0.760467
0.258132
-0.118398
0.0747953
0.0049214
0.0556562
0.0391107
0.0535004
0.0456829
0.046362
0.0383239
0.0324295
0.022941
0.0142077
0.00408792
-0.00463615
-0.0141168
-0.0199832
-0.0280157
-0.0272834
-0.0351234
-0.0206226
-0.0372915
0.0137329
-0.0566039
0.137443
-0.240526
0.779629
-1.70904
1.59885
-0.705321
0.242248
-0.109036
0.0715915
0.00655013
0.0540878
0.0388471
0.0523111
0.0449917
0.0454746
0.0377155
0.0318961
0.0226403
0.0140774
0.00418799
-0.00436464
-0.0136103
-0.0193986
-0.0271481
-0.026608
-0.0339445
-0.0203649
-0.0357206
0.012111
-0.0533758
0.128103
-0.224575
0.724549
-1.58064
1.46837
-0.649242
0.225822
-0.0998694
0.0681222
0.00789456
0.0523223
0.0383692
0.0509677
0.0441522
0.0444727
0.0370122
0.0312946
0.0222974
0.013932
0.00430073
-0.00405313
-0.0130378
-0.0187212
-0.026168
-0.0257861
-0.0326131
-0.0198948
-0.0339535
0.010771
-0.0498807
0.118954
-0.208073
0.668527
-1.45008
1.33613
-0.592425
0.208855
-0.0909356
0.064396
0.00896426
0.0503825
0.0376979
0.0494931
0.0431818
0.0433725
0.0362249
0.0306334
0.0219166
0.0137733
0.00442445
-0.00370611
-0.0124078
-0.017962
-0.0250915
-0.0248354
-0.031152
-0.0192333
-0.0320131
0.00970317
-0.0461278
0.110033
-0.191023
0.611761
-1.31776
1.20259
-0.535158
0.191381
-0.0822914
0.0604319
0.0097698
0.048297
0.0368577
0.0479132
0.0421007
0.042192
0.0353663
0.029922
0.0215033
0.0136034
0.00455724
-0.00332866
-0.0117298
-0.0171335
-0.0239364
-0.0237757
-0.0295872
-0.0184046
-0.0299282
0.00889663
-0.0421369
0.101395
-0.173461
0.554537
-1.18413
1.0684
-0.477856
0.17348
-0.0740175
0.056263
0.0103226
0.046101
0.0358763
0.0462577
0.0409315
0.0409508
0.0344502
0.0291709
0.0210631
0.0134243
0.00469703
-0.00292649
-0.011014
-0.0162494
-0.0227227
-0.0226298
-0.0279484
-0.0174367
-0.0277341
0.00833982
-0.0379415
0.0931216
-0.155467
0.497271
-1.04984
0.934431
-0.42112
0.155294
-0.0662247
0.0519385
0.0106351
0.0438365
0.0347851
0.0445593
0.0396992
0.0396707
0.0334918
0.0283913
0.0206023
0.0132383
0.00484156
-0.00250581
-0.0102718
-0.015325
-0.0214717
-0.0214224
-0.0262683
-0.0163609
-0.0254734
0.00802024
-0.0335921
0.0853233
-0.137185
0.440563
-0.915768
0.801907
-0.365811
0.137043
-0.0590592
0.0475279
0.0107213
0.041554
0.0336191
0.0428546
0.038431
0.038375
0.0325076
0.0275954
0.0201276
0.0130479
0.0049884
-0.00207336
-0.0095153
-0.0143767
-0.0202069
-0.0201809
-0.0245835
-0.0152121
-0.0231965
0.00792395
-0.0291589
0.0781469
-0.118839
0.385277
-0.783134
0.672582
-0.313145
0.119054
-0.0527022
0.043124
0.0105988
0.0393124
0.0324177
0.0411842
0.0371569
0.037089
0.0315158
0.0267962
0.0196465
0.0128556
0.00513492
-0.00163662
-0.00875757
-0.0134226
-0.0189535
-0.0189351
-0.0229346
-0.0140297
-0.0209627
0.00803338
-0.0247359
0.071774
-0.100758
0.332631
-0.653697
0.548894
-0.264686
0.101708
-0.0473329
0.0388288
0.0103
0.0371762
0.0312277
0.0395918
0.0359111
0.0358406
0.0305369
0.0260086
0.0191676
0.0126644
0.00527822
-0.00120412
-0.00801332
-0.0124832
-0.0177394
-0.0177191
-0.0213652
-0.0128603
-0.0188365
0.00831642
-0.0204262
0.0663849
-0.0833287
0.28419
-0.529893
0.43396
-0.222347
0.085225
-0.0430634
0.034701
0.00988434
0.0351994
0.0301027
0.0381158
0.0347263
0.034652
0.0295875
0.0252427
0.0186969
0.0124758
0.00541619
-0.000782545
-0.00729339
-0.0115757
-0.0165871
-0.0165656
-0.0199137
-0.0117576
-0.016872
0.00871324
-0.0162896
0.0620913
-0.066774
0.241871
-0.414843
0.333305
-0.190816
0.0704706
-0.0403872
0.0309593
0.0093136
0.0334749
0.0290552
0.0367905
0.0336031
0.0335269
0.0286592
0.0244929
0.0182274
0.0122875
0.00554882
-0.00036692
-0.00659394
-0.0106932
-0.0155017
-0.0154768
-0.0186157
-0.0107349
-0.0151634
0.00926157
-0.0125476
0.0593866
-0.0519688
0.210367
-0.314072
0.264692
-0.184482
0.0651088
-0.0421786
0.0294465
0.00800846
0.0325204
0.0279803
0.0358069
0.0325526
0.032566
0.0277881
0.0238172
0.017781
0.0121187
0.00566367
2.72392e-05
-0.00596735
-0.00986656
-0.0145803
-0.0144596
-0.0176608
-0.00968275
-0.0142307
0.0105491
-0.0110536
0.0611629
-0.0466033
0.204077
-0.245357
-0.000461736
-0.031246
-0.0315467
0.0627331
0.205968
0.343546
0.469017
0.591329
0.707855
0.798773
0.83519
0.791492
0.656094
0.43619
0.157156
-0.143196
-0.422466
-0.6429
-0.779118
-0.82377
-0.788204
-0.697881
-0.58171
-0.459605
-0.334254
-0.196727
-0.0534858
0.0408144
0.0405202
0.00976505
-0.00567044
-0.0388108
-0.0149894
0.102705
0.246306
0.372077
0.484707
0.593294
0.692962
0.764816
0.784479
0.73206
0.60003
0.396165
0.142648
-0.128683
-0.382414
-0.586767
-0.719573
-0.772931
-0.754141
-0.682922
-0.583637
-0.475267
-0.362762
-0.237051
-0.0934566
0.0242575
0.0480844
0.0149624
-0.0124953
-0.0422166
0.00924614
0.143096
0.279973
0.392107
0.491657
0.585938
0.668661
0.722773
0.728302
0.670123
0.543692
0.35678
0.128512
-0.114532
-0.342986
-0.530338
-0.657498
-0.716597
-0.711964
-0.658533
-0.576232
-0.482185
-0.382767
-0.270703
-0.133843
2.08607e-05
0.0514886
0.0217815
-0.0209644
-0.0400486
0.0398457
0.182192
0.307921
0.40644
0.493632
0.574488
0.642146
0.681544
0.676316
0.614852
0.494572
0.322917
0.116443
-0.102433
-0.30907
-0.481119
-0.602079
-0.664442
-0.670586
-0.631916
-0.564724
-0.484126
-0.397075
-0.298632
-0.172931
-0.0305783
0.0493194
0.0302476
-0.0307384
-0.030941
0.076212
0.219786
0.331441
0.41659
0.49181
0.559854
0.613853
0.640678
0.626971
0.563831
0.450043
0.292556
0.105682
-0.09163
-0.278643
-0.436482
-0.550906
-0.61492
-0.629561
-0.60351
-0.550025
-0.482267
-0.407199
-0.322133
-0.210513
-0.066941
0.0402135
0.0400215
-0.0409361
-0.0135467
0.116899
0.254453
0.350307
0.422628
0.486272
0.542185
0.583872
0.599997
0.579696
0.51617
0.409127
0.264938
0.0959458
-0.0818392
-0.25095
-0.395452
-0.503086
-0.567464
-0.588711
-0.573407
-0.532283
-0.47669
-0.413211
-0.340978
-0.245167
-0.10762
0.0228244
0.0502218
-0.0501657
0.0129537
0.159834
0.28478
0.364347
0.42463
0.477202
0.521846
0.552646
0.559849
0.534631
0.47178
0.371603
0.23985
0.0871464
-0.0729741
-0.225778
-0.357809
-0.458535
-0.522212
-0.548387
-0.542047
-0.511863
-0.467577
-0.415189
-0.354999
-0.275479
-0.150545
-0.00366674
0.0594573
-0.0565741
0.0486256
0.202637
0.309791
0.373689
0.422811
0.464911
0.499287
0.520639
0.520566
0.491878
0.430546
0.337237
0.217075
0.0791968
-0.0649479
-0.202909
-0.323316
-0.417135
-0.479267
-0.508919
-0.509896
-0.489214
-0.45524
-0.413346
-0.364323
-0.300475
-0.193335
-0.039326
0.0658754
-0.0579102
0.0926783
0.24284
0.328964
0.378621
0.417422
0.449749
0.474953
0.488257
0.48239
0.451456
0.392297
0.305768
0.196387
0.0720091
-0.0576735
-0.182119
-0.291714
-0.378715
-0.438647
-0.470549
-0.477358
-0.46478
-0.440026
-0.407932
-0.369241
-0.319634
-0.233525
-0.083364
0.0672249
-0.0516346
0.143426
0.278125
0.342211
0.379504
0.40873
0.432093
0.44927
0.455854
0.445511
0.413356
0.356861
0.276954
0.177587
0.0655059
-0.0510741
-0.163208
-0.262761
-0.343103
-0.400343
-0.433466
-0.444788
-0.438986
-0.422311
-0.399213
-0.370111
-0.332871
-0.268799
-0.134097
0.0609653
-0.0350707
0.198333
0.306544
0.34984
0.376716
0.39702
0.412339
0.422643
0.423743
0.410079
0.377551
0.324076
0.250583
0.160497
0.0596195
-0.0450827
-0.146
-0.236245
-0.310138
-0.364327
-0.397821
-0.412497
-0.412236
-0.402489
-0.387474
-0.367311
-0.340493
-0.297209
-0.18899
0.0444186
-0.005586
0.254138
0.326715
0.35247
0.370614
0.382604
0.390893
0.39545
0.392194
0.37621
0.343997
0.293786
0.226457
0.144961
0.0542905
-0.0396407
-0.130339
-0.211969
-0.279662
-0.330557
-0.363728
-0.380754
-0.384904
-0.380964
-0.373023
-0.361197
-0.343118
-0.317375
-0.244785
0.0149504
0.0392129
0.307071
0.337968
0.350916
0.361502
0.36582
0.368161
0.368031
0.361435
0.343986
0.312639
0.265842
0.2044
0.130839
0.0494659
-0.0346959
-0.116087
-0.189757
-0.251527
-0.298975
-0.331271
-0.349788
-0.357334
-0.358142
-0.356198
-0.352071
-0.34156
-0.328627
-0.297713
-0.0298345
0.10129
0.353118
0.340408
0.346061
0.349631
0.34704
0.344535
0.340694
0.331657
0.313462
0.283411
0.240099
0.184248
0.118008
0.0450992
-0.0302025
-0.103119
-0.169446
-0.225591
-0.269518
-0.300504
-0.319788
-0.329828
-0.334412
-0.337366
-0.340182
-0.336702
-0.331068
-0.343758
-0.0919023
0.182015
0.388326
0.334904
0.338727
0.335206
0.326662
0.320381
0.313705
0.303015
0.284671
0.256242
0.216424
0.165855
0.106354
0.0411486
-0.0261195
-0.0913235
-0.15089
-0.201718
-0.242115
-0.27146
-0.29091
-0.302654
-0.310138
-0.316927
-0.325734
-0.329364
-0.325568
-0.37897
-0.172622
0.282031
0.409116
0.323001
0.32957
0.318419
0.305108
0.296031
0.287296
0.275633
0.257625
0.231054
0.194688
0.149087
0.0957786
0.0375773
-0.0224106
-0.0806022
-0.133956
-0.179783
-0.216689
-0.244151
-0.263278
-0.276044
-0.285654
-0.295299
-0.308915
-0.320199
-0.313668
-0.399766
-0.27264
0.401188
0.412564
0.306756
0.318999
0.299479
0.282811
0.271779
0.261665
0.249605
0.232318
0.207769
0.174771
0.13382
0.0861909
0.0343522
-0.0190436
-0.0708654
-0.118521
-0.159665
-0.193161
-0.218574
-0.236986
-0.250192
-0.261248
-0.272913
-0.289934
-0.309616
-0.297424
-0.403223
-0.391804
0.538525
0.396629
0.288528
0.307148
0.278651
0.26019
0.247872
0.236977
0.225002
0.208733
0.186303
0.156559
0.119942
0.0775101
0.0314435
-0.0159893
-0.0620326
-0.104474
-0.14125
-0.171451
-0.194712
-0.212104
-0.225266
-0.237168
-0.250187
-0.269054
-0.297745
-0.279196
-0.387296
-0.529154
0.692324