/*--------------------------------*- C++ -*----------------------------------*\
| =========                 |                                                 |
| \\      /  F ield         | OpenFOAM: The Open Source CFD Toolbox           |
|  \\    /   O peration     | Version:  5.x                                   |
|   \\  /    A nd           | Web:      www.OpenFOAM.org                      |
|    \\/     M anipulation  |                                                 |
\*---------------------------------------------------------------------------*/
FoamFile
{
    version     2.0;
    format      ascii;
    class       surfaceScalarField;
    location    "0.01";
    object      phi;
}
// * * * * * * * * * * * * * * * * * * * * * * * * * * * * * * * * * * * * * //

dimensions      [0 3 -1 0 0 0 0];

internalField   nonuniform List<scalar> 
14230
(
2.26203e-16
-1.42547e-16
-2.07294e-16
4.33478e-16
-4.0274e-15
3.82017e-15
-9.96471e-15
5.93735e-15
-1.30886e-14
3.12399e-15
-6.3229e-15
-6.76566e-15
1.95593e-14
-2.58821e-14
7.57998e-14
-5.62404e-14
1.72971e-13
-9.71715e-14
3.15085e-13
-1.42113e-13
4.93773e-13
-1.78688e-13
6.86516e-13
-1.92743e-13
8.6076e-13
-1.74243e-13
9.82515e-13
-1.21755e-13
1.02626e-12
-4.37451e-14
9.82529e-13
4.37305e-14
8.60771e-13
1.21758e-13
6.86497e-13
1.74274e-13
4.93698e-13
1.92798e-13
3.1495e-13
1.78748e-13
1.72798e-13
1.42151e-13
7.56274e-14
9.71705e-14
1.9423e-14
5.62041e-14
-6.40709e-15
2.58298e-14
-1.31258e-14
6.71852e-15
-9.97149e-15
-3.15444e-15
-4.0219e-15
-5.94966e-15
-2.04344e-16
-3.81758e-15
2.27214e-16
-4.31561e-16
1.37002e-16
9.02151e-17
1.58574e-16
-2.75239e-17
-2.69507e-15
3.28711e-15
-1.20806e-14
1.32057e-14
-2.32081e-14
1.70649e-14
-2.10291e-14
9.45087e-16
1.73238e-14
-4.51185e-14
1.18812e-13
-1.2737e-13
3.11744e-13
-2.49172e-13
6.17738e-13
-4.03165e-13
1.03799e-12
-5.62369e-13
1.54217e-12
-6.82861e-13
2.06764e-12
-7.18218e-13
2.53143e-12
-6.38037e-13
2.85066e-12
-4.4098e-13
2.96452e-12
-1.57608e-13
2.85072e-12
1.57534e-13
2.5315e-12
4.40974e-13
2.06763e-12
6.3814e-13
1.54201e-12
7.18418e-13
1.03767e-12
6.83089e-13
6.17293e-13
5.62529e-13
3.11272e-13
4.03191e-13
1.18412e-13
2.49064e-13
1.70517e-14
1.27189e-13
-2.11712e-14
4.49412e-14
-2.32576e-14
-1.06822e-15
-1.20861e-14
-1.71212e-14
-2.69668e-15
-1.3207e-14
1.57812e-16
-3.28606e-15
2.37735e-17
2.71045e-16
-4.7043e-16
7.9325e-16
-7.23552e-15
1.00522e-14
-2.30833e-14
2.90536e-14
-3.52727e-14
2.92544e-14
-1.48414e-14
-1.94861e-14
7.60065e-14
-1.35966e-13
2.78256e-13
-3.2962e-13
6.3131e-13
-6.02226e-13
1.15924e-12
-9.31094e-13
1.85214e-12
-1.25527e-12
2.65456e-12
-1.48527e-12
3.46883e-12
-1.53249e-12
4.17392e-12
-1.34313e-12
4.65333e-12
-9.20383e-13
4.82332e-12
-3.27596e-13
4.65345e-12
3.27396e-13
4.17409e-12
9.20336e-13
3.4689e-12
1.34333e-12
2.65442e-12
1.5329e-12
1.85173e-12
1.48577e-12
1.1586e-12
1.25566e-12
6.30585e-13
9.3121e-13
2.77594e-13
6.02054e-13
7.55179e-14
3.29266e-13
-1.51274e-14
1.35586e-13
-3.53949e-14
1.91991e-14
-2.31102e-14
-2.94059e-14
-7.23413e-15
-2.90831e-14
-4.7109e-16
-1.00491e-14
-7.93807e-16
3.46496e-16
-2.102e-15
3.05626e-15
-1.43913e-14
2.23415e-14
-3.54065e-14
5.00689e-14
-4.01706e-14
3.40185e-14
1.48142e-14
-7.44708e-14
1.79816e-13
-3.00968e-13
5.06144e-13
-6.55947e-13
1.03843e-12
-1.13451e-12
1.79578e-12
-1.68844e-12
2.75158e-12
-2.21107e-12
3.82475e-12
-2.55845e-12
4.88842e-12
-2.59616e-12
5.79399e-12
-2.24871e-12
6.40301e-12
-1.5294e-12
6.61782e-12
-5.42407e-13
6.40322e-12
5.41995e-13
5.7943e-12
1.52926e-12
4.88865e-12
2.24898e-12
3.82471e-12
2.59684e-12
2.75118e-12
2.55931e-12
1.79504e-12
2.21179e-12
1.03751e-12
1.68874e-12
5.05246e-13
1.13432e-12
1.79101e-13
6.5541e-13
1.43552e-14
3.00332e-13
-4.03962e-14
7.39504e-14
-3.54764e-14
-3.43258e-14
-1.43961e-14
-5.01634e-14
-2.10146e-15
-2.23437e-14
-3.05291e-15
1.57652e-16
-5.27328e-15
7.70091e-15
-2.40507e-14
4.1119e-14
-4.62834e-14
7.23017e-14
-3.19972e-14
1.97324e-14
7.55711e-14
-1.82039e-13
3.36191e-13
-5.61588e-13
8.07595e-13
-1.12735e-12
1.53393e-12
-1.86084e-12
2.52339e-12
-2.67791e-12
3.72942e-12
-3.4171e-12
5.04669e-12
-3.87572e-12
6.32497e-12
-3.87444e-12
7.39675e-12
-3.32049e-12
8.11046e-12
-2.24312e-12
8.361e-12
-7.92949e-13
8.11078e-12
7.92221e-13
7.39724e-12
2.24279e-12
6.3254e-12
3.32082e-12
5.04683e-12
3.87541e-12
3.72912e-12
3.87702e-12
2.52265e-12
3.41826e-12
1.53289e-12
2.6785e-12
8.06497e-13
1.86071e-12
3.35253e-13
1.12665e-12
7.49187e-14
5.60665e-13
-3.2354e-14
1.81223e-13
-4.64184e-14
-2.02614e-14
-2.40732e-14
-7.25086e-14
-5.27325e-15
-4.11437e-14
-7.69529e-15
-6.30859e-16
-1.0445e-14
1.57011e-14
-3.54238e-14
6.60979e-14
-5.2063e-14
8.89409e-14
-4.47052e-15
-2.786e-14
1.74831e-13
-3.61341e-13
5.51905e-13
-9.38661e-13
1.18687e-12
-1.76232e-12
2.11813e-12
-2.7921e-12
3.33857e-12
-3.89835e-12
4.78032e-12
-4.85885e-12
6.3163e-12
-5.4117e-12
7.77852e-12
-5.33665e-12
8.9876e-12
-4.52957e-12
9.78553e-12
-3.04104e-12
1.00644e-11
-1.07184e-12
9.78596e-12
1.07068e-12
8.9883e-12
3.04045e-12
7.7792e-12
4.52992e-12
6.31669e-12
5.33793e-12
4.7802e-12
5.41351e-12
3.3379e-12
4.86056e-12
2.11704e-12
3.89935e-12
1.18562e-12
2.79214e-12
5.50756e-13
1.76152e-12
1.73972e-13
9.37449e-13
-4.98515e-15
3.6018e-13
-5.22889e-14
2.70424e-14
-3.54796e-14
-8.93179e-14
-1.04494e-14
-6.6174e-14
-1.56986e-14
-2.44604e-15
-1.78424e-14
2.78026e-14
-4.68579e-14
9.51135e-14
-4.80417e-14
9.01248e-14
4.93265e-14
-1.25228e-13
3.20067e-13
-6.32081e-13
8.33315e-13
-1.45191e-12
1.64758e-12
-2.57659e-12
2.79095e-12
-3.93547e-12
4.23807e-12
-5.34547e-12
5.89991e-12
-6.52069e-12
7.63075e-12
-7.14254e-12
9.24995e-12
-6.95585e-12
1.05719e-11
-5.85157e-12
1.14372e-11
-3.90631e-12
1.17384e-11
-1.37306e-12
1.14378e-11
1.37135e-12
1.05729e-11
3.90535e-12
9.25093e-12
5.85187e-12
7.63143e-12
6.95742e-12
5.90003e-12
7.1449e-12
4.23754e-12
6.52305e-12
2.78988e-12
5.34702e-12
1.64622e-12
3.93579e-12
8.3198e-13
2.57576e-12
3.18997e-13
1.45043e-12
4.8631e-14
6.30546e-13
-4.83863e-14
1.2406e-13
-4.69668e-14
-9.07374e-14
-1.78583e-14
-9.52825e-14
-2.78139e-14
-5.74303e-15
-2.72546e-14
4.41635e-14
-5.56528e-14
1.23512e-13
-2.84718e-14
6.29438e-14
1.36819e-13
-2.90518e-13
5.18684e-13
-1.01395e-12
1.18628e-12
-2.11951e-12
2.19267e-12
-3.58298e-12
3.55193e-12
-5.29473e-12
5.21891e-12
-7.01244e-12
7.0846e-12
-8.38638e-12
8.98812e-12
-9.04605e-12
1.07407e-11
-8.70842e-12
1.2155e-11
-7.26592e-12
1.30738e-11
-4.82503e-12
1.33924e-11
-1.69173e-12
1.30744e-11
1.68933e-12
1.21562e-11
4.82359e-12
1.0742e-11
7.26609e-12
8.98914e-12
8.71026e-12
7.08503e-12
9.04901e-12
5.2186e-12
8.38948e-12
3.55095e-12
7.01466e-12
2.19127e-12
5.29547e-12
1.18479e-12
3.58224e-12
5.17408e-13
2.11782e-12
1.35924e-13
1.01203e-12
-2.89629e-14
2.88947e-13
-5.58386e-14
-6.38617e-14
-2.72931e-14
-1.23828e-13
-4.4206e-14
-1.0901e-14
-3.78031e-14
6.39146e-14
-5.79246e-14
1.43633e-13
1.33405e-14
-8.32112e-15
2.65753e-13
-5.42931e-13
7.7789e-13
-1.52608e-12
1.61611e-12
-2.95773e-12
2.82452e-12
-4.79138e-12
4.4004e-12
-6.87062e-12
6.27841e-12
-8.89045e-12
8.33159e-12
-1.04396e-11
1.03873e-11
-1.11018e-11
1.22526e-11
-1.05737e-11
1.3742e-11
-8.75527e-12
1.47027e-11
-5.78575e-12
1.50348e-11
-2.02386e-12
1.47035e-11
2.02063e-12
1.37434e-11
5.78371e-12
1.22543e-11
8.75522e-12
1.03887e-11
1.05758e-11
8.33239e-12
1.11054e-11
6.27839e-12
1.04435e-11
4.39958e-12
8.89347e-12
2.82313e-12
6.87192e-12
1.61451e-12
4.79085e-12
7.76421e-13
2.95591e-12
2.64649e-13
1.5238e-12
1.26765e-14
5.40919e-13
-5.82144e-14
7.02917e-15
-3.78795e-14
-1.44163e-13
-6.40139e-14
-1.80716e-14
-4.77045e-14
8.4675e-14
-4.85314e-14
1.4446e-13
8.48966e-14
-1.41749e-13
4.44043e-13
-9.02078e-13
1.1046e-12
-2.18664e-12
2.12758e-12
-3.98071e-12
3.54497e-12
-6.20877e-12
5.33555e-12
-8.66119e-12
7.41432e-12
-1.09692e-11
9.6388e-12
-1.2664e-11
1.1828e-11
-1.3291e-11
1.3788e-11
-1.25337e-11
1.53377e-11
-1.0305e-11
1.63309e-11
-6.77901e-12
1.66733e-11
-2.36618e-12
1.63319e-11
2.36199e-12
1.53394e-11
6.77625e-12
1.379e-11
1.03046e-11
1.18298e-11
1.2536e-11
9.64e-12
1.32952e-11
7.41465e-12
1.26688e-11
5.33496e-12
1.09732e-11
3.54367e-12
8.66321e-12
2.12592e-12
6.20861e-12
1.10296e-12
3.97886e-12
4.42726e-13
2.18404e-12
8.40368e-14
8.99609e-13
-4.89545e-14
1.40021e-13
-4.78387e-14
-1.45279e-13
-8.48659e-14
-2.69867e-14
-5.40471e-14
1.02065e-13
-2.10676e-14
1.11481e-13
1.94339e-13
-3.57155e-13
6.79633e-13
-1.38737e-12
1.5054e-12
-3.0124e-12
2.72493e-12
-5.20024e-12
4.35551e-12
-7.83936e-12
6.35656e-12
-1.06622e-11
8.62477e-12
-1.32374e-11
1.10048e-11
-1.5044e-11
1.33103e-11
-1.55965e-11
1.53493e-11
-1.45727e-11
1.69469e-11
-1.19026e-11
1.79649e-11
-7.79696e-12
1.83147e-11
-2.71602e-12
1.79659e-11
2.71074e-12
1.69488e-11
7.79335e-12
1.53516e-11
1.19018e-11
1.33126e-11
1.4575e-11
1.10064e-11
1.56013e-11
8.6255e-12
1.50497e-11
6.35627e-12
1.32424e-11
4.35436e-12
1.06651e-11
2.72325e-12
7.83971e-12
1.50362e-12
5.19849e-12
6.78109e-13
3.00955e-12
1.93266e-13
1.38445e-12
-2.16539e-14
3.5494e-13
-5.42637e-14
-1.12669e-13
-1.02392e-13
-3.67378e-14
-5.26049e-14
1.09268e-13
3.20701e-14
2.6806e-14
3.50264e-13
-6.75349e-13
9.80378e-13
-2.01749e-12
1.98646e-12
-4.01849e-12
3.4119e-12
-6.62568e-12
5.25729e-12
-9.68475e-12
7.4627e-12
-1.28676e-11
9.90832e-12
-1.56831e-11
1.24287e-11
-1.75644e-11
1.4835e-11
-1.80029e-11
1.69391e-11
-1.66768e-11
1.85742e-11
-1.35377e-11
1.96103e-11
-8.83308e-12
1.99655e-11
-3.07117e-12
1.96115e-11
3.06467e-12
1.85764e-11
8.8285e-12
1.69418e-11
1.35364e-11
1.48377e-11
1.66792e-11
1.24308e-11
1.80082e-11
9.90949e-12
1.7571e-11
7.46276e-12
1.56891e-11
5.25634e-12
1.28715e-11
3.41028e-12
9.68578e-12
1.98459e-12
6.62418e-12
9.7866e-13
4.01548e-12
3.48967e-13
2.01415e-12
3.12917e-14
6.72615e-13
-5.29322e-14
-2.84449e-14
-1.09784e-13
-4.55403e-14
-3.77082e-14
9.66929e-14
1.19548e-13
-1.3045e-13
5.61534e-13
-1.11734e-12
1.35395e-12
-2.8099e-12
2.55358e-12
-5.21812e-12
4.19182e-12
-8.26392e-12
6.25123e-12
-1.17442e-11
8.65331e-12
-1.52697e-11
1.12639e-11
-1.82937e-11
1.39101e-11
-2.02106e-11
1.64031e-11
-2.04958e-11
1.85603e-11
-1.88341e-11
2.02239e-11
-1.52012e-11
2.12727e-11
-9.88194e-12
2.16314e-11
-3.42982e-12
2.12741e-11
3.42197e-12
2.02263e-11
9.87626e-12
1.85634e-11
1.51993e-11
1.64062e-11
1.88364e-11
1.39127e-11
2.05017e-11
1.12656e-11
2.02182e-11
8.65379e-12
1.83009e-11
6.25056e-12
1.52748e-11
4.1903e-12
1.1746e-11
2.55165e-12
8.26283e-12
1.35206e-12
5.21508e-12
5.6001e-13
2.80619e-12
1.18552e-13
1.11407e-12
-3.81772e-14
1.28285e-13
-9.7457e-14
-5.05038e-14
-2.18785e-15
5.1781e-14
2.50903e-13
-3.83541e-13
8.37096e-13
-1.70353e-12
1.80776e-12
-3.78056e-12
3.21211e-12
-6.62248e-12
5.06758e-12
-1.01194e-11
7.3381e-12
-1.40147e-11
9.92796e-12
-1.78596e-11
1.2691e-11
-2.10567e-11
1.54492e-11
-2.29688e-11
1.80159e-11
-2.30625e-11
2.02158e-11
-2.10339e-11
2.19001e-11
-1.68855e-11
2.29571e-11
-1.09389e-11
2.33177e-11
-3.79045e-12
2.29586e-11
3.78113e-12
2.19028e-11
1.09321e-11
2.02192e-11
1.68828e-11
1.80195e-11
2.10361e-11
1.54523e-11
2.30688e-11
1.26931e-11
2.29774e-11
9.92889e-12
2.10652e-11
7.33776e-12
1.78659e-11
5.06623e-12
1.40176e-11
3.21019e-12
1.01189e-11
1.80573e-12
6.61954e-12
8.35351e-13
3.77657e-12
2.4967e-13
1.69975e-12
-2.83081e-15
3.80785e-13
-5.2859e-14
-4.74289e-14
6.25956e-14
-4.09976e-14
4.36307e-13
-7.57252e-13
1.18583e-12
-2.45305e-12
2.34891e-12
-4.94365e-12
3.96701e-12
-8.24058e-12
6.04175e-12
-1.21941e-11
8.51859e-12
-1.64915e-11
1.12864e-11
-2.06274e-11
1.41892e-11
-2.39595e-11
1.70465e-11
-2.58261e-11
1.96752e-11
-2.56913e-11
2.19083e-11
-2.32669e-11
2.36068e-11
-1.8584e-11
2.4668e-11
-1.20002e-11
2.50294e-11
-4.15179e-12
2.46696e-11
4.14089e-12
2.36097e-11
1.1992e-11
2.1912e-11
1.85805e-11
1.96793e-11
2.32688e-11
1.70501e-11
2.5698e-11
1.41919e-11
2.58356e-11
1.12878e-11
2.39693e-11
8.51865e-12
2.0635e-11
6.04063e-12
1.64956e-11
3.96514e-12
1.21944e-11
2.34679e-12
8.23789e-12
1.18387e-12
4.93948e-12
4.34824e-13
2.4488e-12
6.17473e-14
7.53862e-13
3.95397e-14
-3.06513e-14
1.66638e-13
-1.99949e-13
6.86311e-13
-1.27693e-12
1.6164e-12
-3.38314e-12
2.98419e-12
-6.31144e-12
4.82281e-12
-1.00792e-11
7.11659e-12
-1.44879e-11
9.79337e-12
-1.91683e-11
1.27285e-11
-2.35625e-11
1.57586e-11
-2.69896e-11
1.87026e-11
-2.87701e-11
2.13828e-11
-2.83715e-11
2.36407e-11
-2.55248e-11
2.53476e-11
-2.02909e-11
2.64098e-11
-1.30624e-11
2.67708e-11
-4.51276e-12
2.64115e-11
4.50016e-12
2.53507e-11
1.30528e-11
2.36448e-11
2.02864e-11
2.13873e-11
2.55264e-11
1.87068e-11
2.83785e-11
1.57619e-11
2.87805e-11
1.27304e-11
2.70007e-11
9.79388e-12
2.35716e-11
7.11578e-12
1.91737e-11
4.82106e-12
1.44891e-11
2.98201e-12
1.00769e-11
1.61427e-12
6.30723e-12
6.84575e-13
3.3785e-12
1.65556e-13
1.27288e-12
1.98048e-13
7.04719e-15
3.21094e-13
-4.45753e-13
1.01159e-12
-1.96742e-12
2.13722e-12
-4.50876e-12
3.72002e-12
-7.89424e-12
5.78366e-12
-1.21428e-11
8.29417e-12
-1.69984e-11
1.11631e-11
-2.20373e-11
1.42545e-11
-2.66538e-11
1.73996e-11
-3.01347e-11
2.04188e-11
-3.17893e-11
2.31405e-11
-3.10933e-11
2.54159e-11
-2.78002e-11
2.71262e-11
-2.20012e-11
2.81865e-11
-1.41227e-11
2.85462e-11
-4.87242e-12
2.81883e-11
4.85804e-12
2.71295e-11
1.41116e-11
2.54203e-11
2.19956e-11
2.31454e-11
2.78012e-11
2.04234e-11
3.11005e-11
1.74034e-11
3.18005e-11
1.4257e-11
3.01471e-11
1.11641e-11
2.66645e-11
8.29372e-12
2.20441e-11
5.78209e-12
1.70007e-11
3.71784e-12
1.21412e-11
2.13494e-12
7.89013e-12
1.00961e-12
4.50383e-12
3.19756e-13
1.96273e-12
4.43355e-13
7.44491e-14
5.38024e-13
-8.00876e-13
1.42271e-12
-2.85211e-12
2.75632e-12
-5.84237e-12
4.56245e-12
-9.70036e-12
6.85338e-12
-1.44338e-11
9.57635e-12
-1.97214e-11
1.26286e-11
-2.50895e-11
1.58647e-11
-2.98899e-11
1.91129e-11
-3.33829e-11
2.21962e-11
-3.48726e-11
2.49505e-11
-3.38477e-11
2.72366e-11
-3.00863e-11
2.89458e-11
-2.37104e-11
3.00017e-11
-1.51786e-11
3.03593e-11
-5.22997e-12
3.00036e-11
5.21373e-12
2.89493e-11
1.51658e-11
2.72413e-11
2.37036e-11
2.49558e-11
3.00868e-11
2.22013e-11
3.3855e-11
1.91173e-11
3.48846e-11
1.58678e-11
3.33966e-11
1.26301e-11
2.99022e-11
9.57631e-12
2.50979e-11
6.85205e-12
1.9725e-11
4.56032e-12
1.44329e-11
2.75394e-12
9.69651e-12
1.42049e-12
5.83727e-12
5.36413e-13
2.84681e-12
7.97939e-13
1.81828e-13
8.30081e-13
-1.28884e-12
1.92992e-12
-3.95195e-12
3.48142e-12
-7.39387e-12
5.51719e-12
-1.17361e-11
8.03542e-12
-1.6952e-11
1.09649e-11
-2.26508e-11
1.41906e-11
-2.83153e-11
1.75598e-11
-3.32591e-11
2.08992e-11
-3.67223e-11
2.40363e-11
-3.80096e-11
2.68149e-11
-3.66263e-11
2.91056e-11
-3.2377e-11
3.08097e-11
-2.54145e-11
3.18589e-11
-1.62278e-11
3.22136e-11
-5.5847e-12
3.18608e-11
5.56652e-12
3.08133e-11
1.62133e-11
2.91105e-11
2.54064e-11
2.68205e-11
3.23768e-11
2.40419e-11
3.66335e-11
2.09042e-11
3.80223e-11
1.75635e-11
3.67373e-11
1.41927e-11
3.32729e-11
1.09653e-11
2.83254e-11
8.03439e-12
2.26559e-11
5.51519e-12
1.69521e-11
3.47897e-12
1.17327e-11
1.9275e-12
7.38874e-12
8.28192e-13
3.94612e-12
1.28534e-12
3.40791e-13
1.2102e-12
-1.93339e-12
2.54303e-12
-5.28478e-12
4.31982e-12
-9.17066e-12
6.5896e-12
-1.40059e-11
9.33295e-12
-1.96953e-11
1.24614e-11
-2.57793e-11
1.58501e-11
-3.17039e-11
1.93405e-11
-3.67495e-11
2.27598e-11
-4.01416e-11
2.59406e-11
-4.11904e-11
2.87356e-11
-3.94213e-11
3.10253e-11
-3.46667e-11
3.27206e-11
-2.71098e-11
3.37611e-11
-1.72683e-11
3.41124e-11
-5.93595e-12
3.37631e-11
5.91578e-12
3.27244e-11
1.7252e-11
3.10305e-11
2.71003e-11
2.87416e-11
3.46657e-11
2.59467e-11
3.94284e-11
2.27653e-11
4.12037e-11
1.93448e-11
4.01578e-11
1.58528e-11
3.6765e-11
1.24624e-11
3.17158e-11
9.3323e-12
2.57859e-11
6.58777e-12
1.96967e-11
4.31738e-12
1.40031e-11
2.54045e-12
9.16567e-12
1.20804e-12
5.27854e-12
1.92933e-12
5.64047e-13
1.69128e-12
-2.75766e-12
3.27132e-12
-6.86482e-12
5.27853e-12
-1.11779e-11
7.78468e-12
-1.65121e-11
1.07489e-11
-2.26596e-11
1.40676e-11
-2.9098e-11
1.76081e-11
-3.52444e-11
2.12078e-11
-4.03492e-11
2.46957e-11
-4.36296e-11
2.79109e-11
-4.44056e-11
3.0715e-11
-4.22253e-11
3.29984e-11
-3.69501e-11
3.46815e-11
-2.87929e-11
3.57114e-11
-1.82983e-11
3.60586e-11
-6.28314e-12
3.57135e-11
6.26092e-12
3.46854e-11
1.82801e-11
3.30037e-11
2.8782e-11
3.07212e-11
3.69482e-11
2.79174e-11
4.22322e-11
2.47018e-11
4.44193e-11
2.12127e-11
4.36468e-11
1.76114e-11
4.03663e-11
1.40691e-11
3.52581e-11
1.07487e-11
2.91063e-11
7.78309e-12
2.26622e-11
5.27614e-12
1.65101e-11
3.26862e-12
1.11732e-11
1.68886e-12
6.8583e-12
2.75306e-12
8.65129e-13
2.2859e-12
-3.78333e-12
4.12347e-12
-8.70239e-12
6.3642e-12
-1.34186e-11
9.10708e-12
-1.92549e-11
1.2286e-11
-2.58385e-11
1.57851e-11
-3.2597e-11
1.94657e-11
-3.8925e-11
2.31627e-11
-4.40463e-11
2.67084e-11
-4.71753e-11
2.99488e-11
-4.7646e-11
3.27549e-11
-4.50314e-11
3.50271e-11
-3.92223e-11
3.66949e-11
-3.04606e-11
3.77125e-11
-1.93159e-11
3.80551e-11
-6.6257e-12
3.77146e-11
6.60141e-12
3.66988e-11
1.92958e-11
3.50327e-11
3.04482e-11
3.27615e-11
3.92194e-11
2.99557e-11
4.50379e-11
2.6715e-11
4.76601e-11
2.31682e-11
4.71936e-11
1.94696e-11
4.40649e-11
1.57871e-11
3.89406e-11
1.22863e-11
3.26072e-11
9.1058e-12
2.58427e-11
6.36193e-12
1.92539e-11
4.12071e-12
1.34144e-11
2.28325e-12
8.69575e-12
3.77824e-12
1.25807e-12
3.00612e-12
-5.02991e-12
5.10765e-12
-1.08039e-11
7.58319e-12
-1.58941e-11
1.05611e-11
-2.22329e-11
1.39468e-11
-2.92242e-11
1.76154e-11
-3.62656e-11
2.14241e-11
-4.27338e-11
2.52065e-11
-4.78286e-11
2.87993e-11
-5.0768e-11
3.20561e-11
-5.09029e-11
3.48576e-11
-4.78329e-11
3.71138e-11
-4.14786e-11
3.87632e-11
-3.21099e-11
3.97668e-11
-2.03196e-11
4.01042e-11
-6.96312e-12
3.97689e-11
6.93672e-12
3.87672e-11
2.02976e-11
3.71195e-11
3.20959e-11
3.48643e-11
4.14745e-11
3.20633e-11
4.78389e-11
2.88063e-11
5.09171e-11
2.52126e-11
5.07873e-11
2.14287e-11
4.78488e-11
1.76181e-11
4.27512e-11
1.39476e-11
3.62778e-11
1.05602e-11
2.92301e-11
7.5811e-12
2.2233e-11
5.10488e-12
1.58906e-11
3.00329e-12
1.07973e-11
5.02441e-12
1.75711e-12
3.86331e-12
-6.51417e-12
6.23148e-12
-1.31721e-11
8.94156e-12
-1.86042e-11
1.21508e-11
-2.54421e-11
1.57336e-11
-3.2807e-11
1.95603e-11
-4.00923e-11
2.34847e-11
-4.66581e-11
2.73404e-11
-5.16844e-11
3.09698e-11
-5.43974e-11
3.42345e-11
-5.41676e-11
3.70248e-11
-5.06232e-11
3.92606e-11
-4.37144e-11
4.08886e-11
-3.37379e-11
4.18767e-11
-2.13077e-11
4.22085e-11
-7.29488e-12
4.18788e-11
7.26638e-12
4.08927e-11
2.12837e-11
3.92664e-11
3.37222e-11
3.70318e-11
4.37091e-11
3.4242e-11
5.06286e-11
3.09772e-11
5.41819e-11
2.73471e-11
5.44174e-11
2.34899e-11
5.1706e-11
1.95637e-11
4.66774e-11
1.5735e-11
4.01065e-11
1.21503e-11
3.28147e-11
8.93972e-12
2.54437e-11
6.22877e-12
1.86016e-11
3.86033e-12
1.31658e-11
6.50838e-12
2.37637e-12
4.86805e-12
-8.24973e-12
7.50219e-12
-1.58062e-11
1.04451e-11
-2.15471e-11
1.38799e-11
-2.88769e-11
1.76489e-11
-3.65761e-11
2.16215e-11
-4.40649e-11
2.56488e-11
-5.06855e-11
2.95659e-11
-5.56014e-11
3.32214e-11
-5.80529e-11
3.64857e-11
-5.74319e-11
3.92586e-11
-5.33962e-11
4.14695e-11
-4.59253e-11
4.30734e-11
-3.53417e-11
4.40443e-11
-2.22786e-11
4.43699e-11
-7.62048e-12
4.40464e-11
7.58987e-12
4.30774e-11
2.22527e-11
4.14753e-11
3.53243e-11
3.92657e-11
4.59187e-11
3.64935e-11
5.34008e-11
3.32293e-11
5.74461e-11
2.95731e-11
5.80736e-11
2.56547e-11
5.56244e-11
2.16255e-11
5.07066e-11
1.76509e-11
4.40811e-11
1.38799e-11
3.65857e-11
1.04436e-11
2.888e-11
7.49961e-12
2.15455e-11
4.86498e-12
1.58004e-11
8.24376e-12
3.12961e-12
6.03013e-12
-1.02468e-11
8.92663e-12
-1.87027e-11
1.20993e-11
-2.47198e-11
1.57517e-11
-3.25294e-11
1.96949e-11
-4.05192e-11
2.38006e-11
-4.81706e-11
2.79179e-11
-5.48028e-11
3.18844e-11
-5.95679e-11
3.55559e-11
-6.17243e-11
3.88114e-11
-6.06874e-11
4.15608e-11
-5.61455e-11
4.37424e-11
-4.8107e-11
4.53193e-11
-3.69186e-11
4.62716e-11
-2.32309e-11
4.65905e-11
-7.93942e-12
4.62736e-11
7.90674e-12
4.53233e-11
2.3203e-11
4.37482e-11
3.68994e-11
4.15679e-11
4.8099e-11
3.88194e-11
5.61493e-11
3.55641e-11
6.07015e-11
3.18921e-11
6.17456e-11
2.79244e-11
5.95921e-11
2.38053e-11
5.48257e-11
1.96975e-11
4.81889e-11
1.57523e-11
4.05309e-11
1.20981e-11
3.25341e-11
8.92424e-12
2.47194e-11
6.02705e-12
1.86976e-11
1.02408e-11
4.03004e-12
7.35859e-12
-1.2512e-11
1.05113e-11
-2.18555e-11
1.39093e-11
-2.81178e-11
1.77696e-11
-3.63896e-11
2.18738e-11
-4.46234e-11
2.60994e-11
-5.23963e-11
3.02935e-11
-5.89968e-11
3.42972e-11
-6.35717e-11
3.79745e-11
-6.54016e-11
4.12133e-11
-6.39262e-11
4.39329e-11
-5.88652e-11
4.6081e-11
-5.02551e-11
4.76281e-11
-3.84657e-11
4.85602e-11
-2.4163e-11
4.8872e-11
-8.25122e-12
4.85623e-11
8.21649e-12
4.76321e-11
2.41331e-11
4.60868e-11
3.84448e-11
4.39401e-11
5.02457e-11
4.12214e-11
5.8868e-11
3.7983e-11
6.39399e-11
3.43054e-11
6.54232e-11
3.03005e-11
6.3597e-11
2.61048e-11
5.90214e-11
2.1877e-11
5.24166e-11
1.77707e-11
4.46372e-11
1.39086e-11
3.63962e-11
1.05092e-11
2.81188e-11
7.35556e-12
2.18513e-11
1.25061e-11
5.09019e-12
8.86179e-12
-1.50487e-11
1.22627e-11
-2.52564e-11
1.58801e-11
-3.17352e-11
1.99364e-11
-4.0446e-11
2.41877e-11
-4.88747e-11
2.85197e-11
-5.67283e-11
3.27769e-11
-6.3254e-11
3.6806e-11
-6.76008e-11
4.04789e-11
-6.90745e-11
4.36928e-11
-6.71401e-11
4.63767e-11
-6.15491e-11
4.8487e-11
-5.23654e-11
5.00016e-11
-3.99803e-11
5.09119e-11
-2.50733e-11
5.12161e-11
-8.55537e-12
5.09139e-11
8.51865e-12
5.00055e-11
2.50415e-11
4.84927e-11
3.99576e-11
4.63839e-11
5.23545e-11
4.3701e-11
6.15509e-11
4.04876e-11
6.71533e-11
3.68145e-11
6.90963e-11
3.27844e-11
6.7627e-11
2.85257e-11
6.32802e-11
2.41916e-11
5.67506e-11
1.99382e-11
4.88907e-11
1.58798e-11
4.04546e-11
1.22609e-11
3.17378e-11
8.85889e-12
2.52532e-11
1.50432e-11
6.32184e-12
1.05475e-11
-1.7857e-11
1.41867e-11
-2.88955e-11
1.80161e-11
-3.55646e-11
2.22551e-11
-4.46849e-11
2.6639e-11
-5.32586e-11
3.10631e-11
-6.11524e-11
3.53696e-11
-6.75605e-11
3.9412e-11
-7.16431e-11
4.30704e-11
-7.27329e-11
4.62514e-11
-7.0321e-11
4.88935e-11
-6.41913e-11
5.09618e-11
-5.44336e-11
5.24411e-11
-4.14596e-11
5.33281e-11
-2.59603e-11
5.36241e-11
-8.85137e-12
5.333e-11
8.81271e-12
5.24449e-11
2.59266e-11
5.09674e-11
4.14352e-11
4.89007e-11
5.44212e-11
4.62597e-11
6.41919e-11
4.30793e-11
7.03337e-11
3.94208e-11
7.27548e-11
3.53777e-11
7.16702e-11
3.10697e-11
6.75882e-11
2.66436e-11
6.11767e-11
2.22574e-11
5.32769e-11
1.80164e-11
4.46956e-11
1.41853e-11
3.55689e-11
1.05448e-11
2.88937e-11
1.7852e-11
7.736e-12
1.2423e-11
-2.09339e-11
1.62893e-11
-3.27618e-11
2.03217e-11
-3.9597e-11
2.47282e-11
-4.90915e-11
2.92297e-11
-5.77601e-11
3.37313e-11
-6.5654e-11
3.80732e-11
-7.19024e-11
4.21166e-11
-7.56866e-11
4.57505e-11
-7.63667e-11
4.88905e-11
-7.34611e-11
5.14849e-11
-6.67856e-11
5.35067e-11
-5.64554e-11
5.49479e-11
-4.29008e-11
5.581e-11
-2.68224e-11
5.60973e-11
-9.13871e-12
5.58119e-11
9.09818e-12
5.49516e-11
2.67869e-11
5.35122e-11
4.28746e-11
5.14919e-11
5.64414e-11
4.88988e-11
6.6785e-11
4.57595e-11
7.3473e-11
4.21258e-11
7.63885e-11
3.80817e-11
7.57143e-11
3.37385e-11
7.19314e-11
2.9235e-11
6.56802e-11
2.47313e-11
5.77806e-11
2.03225e-11
4.91043e-11
1.62883e-11
3.96031e-11
1.24206e-11
3.27615e-11
2.09296e-11
9.34297e-12
1.44952e-11
-2.42736e-11
1.85761e-11
-3.68428e-11
2.28007e-11
-4.38215e-11
2.73585e-11
-5.36493e-11
3.1962e-11
-6.23637e-11
3.6526e-11
-7.02179e-11
4.0889e-11
-7.62653e-11
4.49213e-11
-7.97189e-11
4.85203e-11
-7.99657e-11
5.16114e-11
-7.65521e-11
5.41519e-11
-6.93262e-11
5.6123e-11
-5.84266e-11
5.75233e-11
-4.43011e-11
5.83589e-11
-2.7658e-11
5.8637e-11
-9.41686e-12
5.83606e-11
9.37456e-12
5.75268e-11
2.76207e-11
5.61283e-11
4.42731e-11
5.41587e-11
5.8411e-11
5.16195e-11
6.93242e-11
4.85294e-11
7.65632e-11
4.49306e-11
7.99872e-11
4.08979e-11
7.9747e-11
3.65337e-11
7.62956e-11
3.19679e-11
7.02459e-11
2.73622e-11
6.23864e-11
2.28021e-11
5.36644e-11
1.85757e-11
4.38296e-11
1.44931e-11
3.68441e-11
2.42703e-11
1.11524e-11
1.67706e-11
-2.78681e-11
2.10527e-11
-4.11249e-11
2.54567e-11
-4.82256e-11
3.01483e-11
-5.83409e-11
3.4838e-11
-6.70534e-11
3.94487e-11
-7.48286e-11
4.38183e-11
-8.0635e-11
4.78272e-11
-8.37278e-11
5.13811e-11
-8.35197e-11
5.44151e-11
-7.95862e-11
5.68957e-11
-7.18067e-11
5.88118e-11
-6.03427e-11
6.01682e-11
-4.56575e-11
6.09756e-11
-2.84655e-11
6.12441e-11
-9.6853e-12
6.09773e-11
9.64132e-12
6.01716e-11
2.84265e-11
5.88168e-11
4.56278e-11
5.69023e-11
6.03255e-11
5.44232e-11
7.18034e-11
5.13901e-11
7.95962e-11
4.78367e-11
8.35407e-11
4.38275e-11
8.37561e-11
3.94569e-11
8.06663e-11
3.48445e-11
7.48583e-11
3.01527e-11
6.70781e-11
2.54588e-11
5.83583e-11
2.10527e-11
4.82357e-11
1.67688e-11
4.1128e-11
2.78658e-11
1.31733e-11
1.92554e-11
-3.17068e-11
2.3724e-11
-4.55935e-11
2.82932e-11
-5.27948e-11
3.31002e-11
-6.31479e-11
3.78595e-11
-7.18127e-11
4.25008e-11
-7.94699e-11
4.68625e-11
-8.49966e-11
5.08354e-11
-8.77007e-11
5.43339e-11
-8.70182e-11
5.73028e-11
-8.2555e-11
5.97172e-11
-7.42212e-11
6.15739e-11
-6.21994e-11
6.28836e-11
-4.69671e-11
6.36612e-11
-2.92431e-11
6.39194e-11
-9.94349e-12
6.36628e-11
9.89794e-12
6.28867e-11
2.92026e-11
6.15787e-11
4.69358e-11
5.97236e-11
6.21806e-11
5.73106e-11
7.42164e-11
5.43429e-11
8.25639e-11
5.0845e-11
8.70387e-11
4.68719e-11
8.77292e-11
4.25095e-11
8.50288e-11
3.78666e-11
7.95011e-11
3.31053e-11
7.18395e-11
2.8296e-11
6.31676e-11
2.37247e-11
5.2807e-11
1.92542e-11
4.55985e-11
3.17058e-11
1.54142e-11
2.19558e-11
-3.57772e-11
2.65951e-11
-5.02327e-11
3.13133e-11
-5.7513e-11
3.62165e-11
-6.80511e-11
4.10285e-11
-7.66247e-11
4.56838e-11
-8.41252e-11
5.00226e-11
-8.93355e-11
5.39471e-11
-9.16252e-11
5.73798e-11
-9.04509e-11
6.02753e-11
-8.54505e-11
6.26174e-11
-7.65633e-11
6.44102e-11
-6.39922e-11
6.56701e-11
-4.8227e-11
6.64163e-11
-2.99893e-11
6.66637e-11
-1.01909e-11
6.64178e-11
1.01439e-11
6.56731e-11
2.99473e-11
6.44147e-11
4.81942e-11
6.26235e-11
6.39718e-11
6.02829e-11
7.6557e-11
5.73886e-11
8.54581e-11
5.39567e-11
9.04706e-11
5.00323e-11
9.16536e-11
4.56928e-11
8.93682e-11
4.10362e-11
8.41577e-11
3.62222e-11
7.66535e-11
3.13167e-11
6.80731e-11
2.65963e-11
5.75274e-11
2.1955e-11
5.02398e-11
3.57776e-11
1.78832e-11
2.48774e-11
-4.00648e-11
2.96703e-11
-5.50257e-11
3.45197e-11
-6.23624e-11
3.94994e-11
-7.30308e-11
4.43467e-11
-8.1472e-11
4.89988e-11
-8.87773e-11
5.32998e-11
-9.36365e-11
5.71631e-11
-9.54885e-11
6.05195e-11
-9.38073e-11
6.33334e-11
-8.82644e-11
6.5597e-11
-7.88269e-11
6.73214e-11
-6.57166e-11
6.85286e-11
-4.94341e-11
6.92415e-11
-3.07023e-11
6.94775e-11
-1.04269e-11
6.92429e-11
1.03786e-11
6.85313e-11
3.06589e-11
6.73256e-11
4.93998e-11
6.56027e-11
6.56947e-11
6.33407e-11
7.88191e-11
6.05281e-11
8.82707e-11
5.71726e-11
9.38261e-11
5.33096e-11
9.55165e-11
4.90082e-11
9.36697e-11
4.43548e-11
8.8811e-11
3.95057e-11
8.15026e-11
3.45239e-11
7.3055e-11
2.96722e-11
6.2379e-11
2.48772e-11
5.50349e-11
4.00668e-11
2.0588e-11
2.80256e-11
-4.45532e-11
3.2954e-11
-5.99541e-11
3.79153e-11
-6.73236e-11
4.29511e-11
-7.80666e-11
4.78156e-11
-8.63365e-11
5.2447e-11
-9.34087e-11
5.6695e-11
-9.78845e-11
6.04842e-11
-9.92777e-11
6.37538e-11
-9.70769e-11
6.64777e-11
-9.09883e-11
6.86565e-11
-8.10057e-11
7.03079e-11
-6.7368e-11
7.14593e-11
-5.05855e-11
7.21373e-11
-3.13803e-11
7.23614e-11
-1.0651e-11
7.21385e-11
1.06015e-11
7.14617e-11
3.13356e-11
7.03118e-11
5.05498e-11
6.86618e-11
6.73446e-11
6.64846e-11
8.09963e-11
6.3762e-11
9.09933e-11
6.04936e-11
9.70946e-11
5.67049e-11
9.93052e-11
5.24566e-11
9.79179e-11
4.78242e-11
9.34435e-11
4.2958e-11
8.63687e-11
3.79201e-11
7.80929e-11
3.29566e-11
6.73425e-11
2.8026e-11
5.99655e-11
4.45569e-11
2.35358e-11
3.14057e-11
-4.92243e-11
3.64501e-11
-6.49985e-11
4.15025e-11
-7.23761e-11
4.65735e-11
-8.31376e-11
5.14366e-11
-9.11996e-11
5.60295e-11
-9.80016e-11
6.02091e-11
-1.02064e-10
6.39112e-11
-1.0298e-10
6.70831e-11
-1.00249e-10
6.97088e-11
-9.3614e-11
7.17963e-11
-8.30932e-11
7.33702e-11
-6.89419e-11
7.44627e-11
-5.1678e-11
7.5104e-11
-3.20217e-11
7.53156e-11
-1.08625e-11
7.51051e-11
1.0812e-11
7.44649e-11
3.19758e-11
7.33737e-11
5.1641e-11
7.18012e-11
6.89171e-11
6.97153e-11
8.30823e-11
6.70911e-11
9.36175e-11
6.39203e-11
1.00265e-10
6.02188e-11
1.03007e-10
5.60392e-11
1.02098e-10
5.14456e-11
9.80371e-11
4.6581e-11
9.12332e-11
4.15079e-11
8.3166e-11
3.64533e-11
7.23971e-11
3.14067e-11
6.50122e-11
4.92299e-11
2.67336e-11
3.50224e-11
-5.40584e-11
4.01619e-11
-7.01381e-11
4.52836e-11
-7.74977e-11
5.03686e-11
-8.82227e-11
5.52109e-11
-9.60419e-11
5.97469e-11
-1.02538e-10
6.38426e-11
-1.0616e-10
6.74444e-11
-1.06582e-10
7.05081e-11
-1.03313e-10
7.30271e-11
-9.6133e-11
7.50169e-11
-8.5083e-11
7.65086e-11
-7.04336e-11
7.75391e-11
-5.27084e-11
7.81419e-11
-3.26245e-11
7.83404e-11
-1.1061e-11
7.81428e-11
1.10096e-11
7.7541e-11
3.25776e-11
7.65117e-11
5.26703e-11
7.50213e-11
7.04074e-11
7.3033e-11
8.50706e-11
7.05156e-11
9.6135e-11
6.74532e-11
1.03328e-10
6.38522e-11
1.06608e-10
5.97567e-11
1.06193e-10
5.52201e-11
1.02574e-10
5.03765e-11
9.60768e-11
4.52896e-11
8.82529e-11
4.01658e-11
7.75209e-11
3.5024e-11
7.0154e-11
5.4066e-11
3.01879e-11
3.88802e-11
-5.9034e-11
4.40929e-11
-7.53507e-11
4.92606e-11
-8.26654e-11
5.43378e-11
-9.32998e-11
5.91394e-11
-1.00844e-10
6.35999e-11
-1.06998e-10
6.75961e-11
-1.10156e-10
7.10843e-11
-1.1007e-10
7.40289e-11
-1.06257e-10
7.64326e-11
-9.85368e-11
7.83184e-11
-8.69688e-11
7.97232e-11
-7.18385e-11
8.06885e-11
-5.36738e-11
8.1251e-11
-3.31869e-11
8.14357e-11
-1.12457e-11
8.12517e-11
1.11936e-11
8.069e-11
3.31393e-11
7.97258e-11
5.36345e-11
7.83223e-11
7.18109e-11
7.64381e-11
8.69549e-11
7.40358e-11
9.85372e-11
7.10927e-11
1.06271e-10
6.76055e-11
1.10095e-10
6.36097e-11
1.10189e-10
5.91489e-11
1.07035e-10
5.43462e-11
1.0088e-10
4.92672e-11
9.33319e-11
4.40974e-11
8.26907e-11
3.88824e-11
7.5369e-11
5.90436e-11
3.39048e-11
4.29832e-11
-6.4128e-11
4.82457e-11
-8.06132e-11
5.34355e-11
-8.78552e-11
5.84825e-11
-9.83469e-11
6.32229e-11
-1.05584e-10
6.75891e-11
-1.11364e-10
7.14699e-11
-1.14037e-10
7.4831e-11
-1.13431e-10
7.76456e-11
-1.09072e-10
7.99257e-11
-1.00817e-10
8.17008e-11
-8.87439e-11
8.3014e-11
-7.31517e-11
8.39109e-11
-5.45707e-11
8.44312e-11
-3.37072e-11
8.46017e-11
-1.14162e-11
8.44318e-11
1.13635e-11
8.39122e-11
3.36589e-11
8.30161e-11
5.45306e-11
8.17041e-11
7.31229e-11
7.99305e-11
8.87285e-11
7.76521e-11
1.00816e-10
7.48389e-11
1.09084e-10
7.14789e-11
1.13455e-10
6.75988e-11
1.14069e-10
6.32325e-11
1.11401e-10