/*--------------------------------*- C++ -*----------------------------------*\
| =========                 |                                                 |
| \\      /  F ield         | OpenFOAM: The Open Source CFD Toolbox           |
|  \\    /   O peration     | Version:  5.x                                   |
|   \\  /    A nd           | Web:      www.OpenFOAM.org                      |
|    \\/     M anipulation  |                                                 |
\*---------------------------------------------------------------------------*/
FoamFile
{
    version     2.0;
    format      ascii;
    class       volVectorField;
    location    "0.01";
    object      U;
}
// * * * * * * * * * * * * * * * * * * * * * * * * * * * * * * * * * * * * * //

dimensions      [0 1 -1 0 0 0 0];

internalField   nonuniform List<vector> 
7200
(
(1.16084e-07 1.45996e-07 0)
(9.1033e-07 1.42954e-06 6.97313e-24)
(-2.83284e-06 -6.40194e-06 -1.81931e-23)
(-1.79977e-05 -3.24878e-05 -9.2194e-25)
(-3.65141e-05 -5.44966e-05 1.33441e-22)
(-3.74493e-05 -4.26024e-05 -4.83111e-22)
(4.57542e-06 1.79447e-05 -6.43915e-24)
(0.000122239 0.000131275 7.14426e-24)
(0.000354544 0.000290985 1.33289e-21)
(0.000732082 0.000472069 -2.47061e-23)
(0.00125417 0.000628079 8.94555e-22)
(0.00187241 0.000702477 8.50009e-22)
(0.00249288 0.0006508 7.15577e-22)
(0.00299843 0.000461936 0)
(0.00328272 0.000167221 1.06456e-24)
(0.00328275 -0.000167224 0)
(0.00299849 -0.000461943 2.42715e-24)
(0.00249288 -0.000650793 2.96461e-23)
(0.00187227 -0.000702405 -8.23354e-22)
(0.00125382 -0.000627885 -3.37117e-23)
(0.000731569 -0.000471726 -1.16898e-23)
(0.000353975 -0.000290528 2.63265e-21)
(0.000121742 -0.000130796 1.67408e-24)
(4.23217e-06 -1.75433e-05 -7.32127e-22)
(-3.76307e-05 4.28628e-05 -2.36921e-22)
(-3.65755e-05 5.46125e-05 -1.28839e-22)
(-1.79937e-05 3.2507e-05 0)
(-2.81257e-06 6.38987e-06 -2.84987e-24)
(9.17251e-07 -1.4329e-06 4.70853e-24)
(1.15938e-07 -1.45656e-07 -3.64848e-25)
(1.29473e-07 7.43383e-07 1.48068e-26)
(-6.19178e-07 9.79813e-07 -5.82413e-24)
(-1.42895e-05 -3.37594e-05 1.27025e-23)
(-5.06966e-05 -0.000109107 -1.8467e-24)
(-8.11199e-05 -0.000148828 -1.97283e-22)
(-4.1273e-05 -8.08495e-05 -3.183e-23)
(0.000146515 0.000121961 7.7817e-24)
(0.000574161 0.000460096 -1.51895e-21)
(0.00133614 0.000903817 -5.34531e-23)
(0.00248882 0.00137664 1.08396e-21)
(0.00399975 0.00175629 -1.17944e-21)
(0.00571942 0.00190701 -1.2646e-21)
(0.00739704 0.00173091 -2.02712e-21)
(0.00873833 0.0012128 -3.2529e-22)
(0.00948445 0.000436287 3.26119e-23)
(0.00948457 -0.000436313 2.66688e-23)
(0.00873859 -0.00121284 -3.11006e-22)
(0.0073972 -0.00173091 1.04178e-21)
(0.0057192 -0.00190684 1.00328e-22)
(0.00399898 -0.00175581 -1.26653e-21)
(0.00248755 -0.00137575 1.12107e-21)
(0.00133464 -0.000902598 -7.12631e-23)
(0.000572754 -0.000458763 -1.52517e-21)
(0.000145462 -0.000120784 1.107e-21)
(-4.18943e-05 8.16757e-05 3.64962e-22)
(-8.13861e-05 0.000149252 4.07901e-22)
(-5.0751e-05 0.000109224 1.73559e-24)
(-1.42657e-05 3.3741e-05 -2.32366e-23)
(-6.09739e-07 -9.95667e-07 -7.3928e-24)
(1.2844e-07 -7.43106e-07 -3.2225e-27)
(-4.60229e-08 1.38329e-06 -6.98075e-25)
(-4.61098e-06 -4.87138e-06 -6.98981e-26)
(-3.43967e-05 -7.30231e-05 -1.49827e-23)
(-9.06374e-05 -0.000182907 1.20179e-22)
(-0.000108567 -0.000208617 -2.65578e-22)
(2.0793e-05 -5.62726e-05 8.24631e-22)
(0.000421379 0.000302121 0)
(0.00123349 0.000854499 1.56506e-21)
(0.00258538 0.00153961 -1.96929e-21)
(0.00453014 0.00223158 -1.12986e-21)
(0.00698165 0.0027513 1.13189e-22)
(0.00968967 0.00291501 -9.07081e-24)
(0.0122742 0.00260094 9.75259e-22)
(0.01431 0.00180272 3.27598e-22)
(0.0154328 0.000645072 -8.31846e-25)
(0.0154331 -0.00064516 -4.98991e-23)
(0.0143106 -0.00180282 3.14946e-22)
(0.0122747 -0.00260097 0)
(0.00968963 -0.00291479 2.19873e-21)
(0.00698076 -0.0027506 1.09493e-21)
(0.0045284 -0.00223028 -1.09767e-21)
(0.00258315 -0.0015378 -1.92785e-21)
(0.00123126 -0.000852457 -1.08287e-23)
(0.000419598 -0.000300246 5.86162e-22)
(1.96532e-05 5.76647e-05 5.29367e-24)
(-0.000109116 0.000209404 -4.90168e-22)
(-9.07944e-05 0.000183183 0)
(-3.43757e-05 7.30313e-05 6.49813e-24)
(-4.59998e-06 4.84349e-06 0)
(-5.04961e-08 -1.38462e-06 7.44998e-25)
(-9.33102e-07 1.66795e-06 7.71315e-25)
(-1.31865e-05 -1.72332e-05 0)
(-6.25438e-05 -0.000120541 1.39162e-23)
(-0.000126987 -0.000246427 3.01966e-23)
(-9.79753e-05 -0.000230518 2.72321e-22)
(0.000174088 2.63727e-05 -4.29833e-22)
(0.000853184 0.000544581 -1.00657e-23)
(0.0021159 0.001292 -1.50158e-21)
(0.00410298 0.00217235 0)
(0.00684111 0.00301737 -1.6246e-23)
(0.0101779 0.0036098 1.13801e-21)
(0.013769 0.00374211 -9.82128e-22)
(0.017131 0.00328826 7.44382e-24)
(0.0197448 0.00225702 0)
(0.0211754 0.000803789 2.43407e-23)
(0.0211758 -0.000803992 4.54914e-23)
(0.0197458 -0.00225722 0)
(0.0171321 -0.00328837 7.28159e-24)
(0.0137694 -0.00374189 -1.05129e-21)
(0.0101772 -0.00360898 -1.1195e-21)
(0.00683922 -0.00301578 0)
(0.00410026 -0.00217007 0)
(0.002113 -0.00128938 1.4874e-21)
(0.000850697 -0.000542093 -5.94031e-22)
(0.000172373 -2.4437e-05 -4.25202e-22)
(-9.88924e-05 0.000231697 2.63201e-22)
(-0.000127318 0.000246911 0)
(-6.25688e-05 0.000120606 2.86198e-23)
(-1.31757e-05 1.7199e-05 -1.13061e-25)
(-9.38229e-07 -1.67205e-06 0)
(-3.20481e-06 1.09453e-06 1.85716e-24)
(-2.77764e-05 -3.64968e-05 1.68107e-25)
(-9.57491e-05 -0.000171673 -1.04009e-25)
(-0.00014821 -0.000292459 2.82131e-23)
(-3.15707e-05 -0.000211359 3.23495e-22)
(0.000438254 0.000163529 7.73998e-24)
(0.00145853 0.000838626 -1.8771e-23)
(0.00322862 0.00175658 1.54377e-21)
(0.00588223 0.0027866 0)
(0.00940292 0.00372749 -9.7362e-22)
(0.0135666 0.00434022 1.60437e-23)
(0.017945 0.00441128 7.62273e-23)
(0.0219745 0.00382272 6.83772e-24)
(0.0250706 0.00260065 6.82361e-25)
(0.0267537 0.000922119 -2.51336e-23)
(0.0267543 -0.000922501 -2.09337e-23)
(0.0250721 -0.00260102 2.32106e-22)
(0.0219762 -0.00382294 0)
(0.017946 -0.00441109 -7.66757e-24)
(0.0135664 -0.00433932 7.395e-24)
(0.00940115 -0.00372568 1.48879e-23)
(0.00587928 -0.00278396 -1.40226e-23)
(0.00322519 -0.00175348 -1.50712e-21)
(0.0014554 -0.000835607 -5.90781e-22)
(0.000435939 -0.000161083 4.41287e-22)
(-3.29253e-05 0.000212946 3.1426e-22)
(-0.000148786 0.000293196 1.78625e-22)
(-9.58647e-05 0.000171833 -2.97083e-23)
(-2.77756e-05 3.64674e-05 0)
(-3.2098e-06 -1.10225e-06 0)
(-7.68016e-06 -8.71681e-07 5.90626e-25)
(-4.89831e-05 -6.21737e-05 3.69556e-25)
(-0.000128775 -0.000220984 -3.74659e-25)
(-0.00014128 -0.0003147 2.6187e-23)
(0.000108245 -0.00014962 1.00635e-23)
(0.000831581 0.000350298 6.70741e-24)
(0.00225173 0.00117305 0)
(0.00457662 0.00223317 0)
(0.00791627 0.00336896 8.35989e-22)
(0.0122 0.00435657 1.85621e-21)
(0.0171319 0.00494913 -8.86647e-22)
(0.0222113 0.00493987 1.73876e-21)
(0.0268144 0.00422634 0)
(0.0303139 0.00285176 0)
(0.0322047 0.00100705 0)
(0.0322055 -0.00100769 0)
(0.030316 -0.00285235 -2.31582e-22)
(0.0268168 -0.00422673 -2.19793e-24)
(0.0222131 -0.00493977 -8.06424e-22)
(0.0171323 -0.00494821 -6.84147e-24)
(0.0121986 -0.00435463 0)
(0.00791332 -0.00336606 0)
(0.00457285 -0.0022297 0)
(0.00224804 -0.00116958 1.19166e-21)
(0.000828665 -0.000347386 6.53874e-24)
(0.000106396 0.000151613 -3.27882e-22)
(-0.000142174 0.000315721 -1.84423e-22)
(-0.000129036 0.000221277 0)
(-4.90117e-05 6.21647e-05 0)
(-7.68598e-06 8.60317e-07 0)
(-1.51777e-05 -4.71795e-06 -2.98474e-24)
(-7.6142e-05 -9.2839e-05 -7.07516e-24)
(-0.000153769 -0.000262716 -7.36256e-25)
(-9.12288e-05 -0.000308397 2.71839e-23)
(0.000339621 -4.58758e-05 -3.6132e-22)
(0.00137168 0.000580188 -8.01127e-24)
(0.0032454 0.00153615 -5.8044e-22)
(0.0061632 0.00270786 -1.08007e-23)
(0.0101981 0.00390843 -3.41328e-23)
(0.0152189 0.00490157 -1.78821e-21)
(0.0208614 0.00544373 1.7725e-21)
(0.0265646 0.00534354 -8.33583e-22)
(0.0316616 0.00451787 -5.74655e-24)
(0.0354996 0.00302537 2.02372e-22)
(0.0375616 0.0010643 -5.69599e-25)
(0.0375626 -0.00106527 5.24025e-25)
(0.0355022 -0.00302626 -1.90749e-22)
(0.0316649 -0.00451848 -2.91614e-22)
(0.0265675 -0.00534356 8.06494e-22)
(0.0208627 -0.00544282 6.31454e-24)
(0.0152181 -0.00489953 1.34099e-23)
(0.0101954 -0.00390533 -1.26798e-23)
(0.00615927 -0.00270408 -1.05947e-23)
(0.00324126 -0.0015323 -1.16969e-21)
(0.00136819 -0.000576861 -7.84211e-24)
(0.000337239 4.82602e-05 -3.5831e-22)
(-9.25098e-05 0.000309721 -2.37881e-22)
(-0.000154237 0.000263176 -2.09788e-24)
(-7.623e-05 9.28705e-05 0)
(-1.5189e-05 4.70405e-06 0)
(-2.62887e-05 -1.08065e-05 0)
(-0.000106763 -0.000126192 7.83248e-24)
(-0.000160106 -0.000291288 0)
(1.85534e-05 -0.000270608 -2.61177e-22)
(0.00068093 9.74245e-05 5.40172e-24)
(0.00207525 0.000845555 0)
(0.00445035 0.00191625 6.09054e-22)
(0.00799014 0.00316828 0)
(0.0127209 0.00439661 -8.06652e-22)
(0.0184485 0.00536179 8.44293e-22)
(0.0247463 0.0058321 -1.62259e-21)
(0.0310047 0.00563696 1.03313e-24)
(0.0365277 0.00471384 2.86415e-22)
(0.0406505 0.00313433 -1.93265e-23)
(0.0428544 0.0010987 0)
(0.0428556 -0.00110009 1.38542e-23)
(0.0406537 -0.00313559 3.64644e-22)
(0.0365319 -0.00471474 2.96934e-22)
(0.0310086 -0.00563716 6.0074e-24)
(0.0247486 -0.00583125 -7.66687e-22)
(0.0184485 -0.00535969 0)
(0.0127186 -0.00439336 -7.31187e-22)
(0.00798625 -0.00316427 -1.09695e-23)
(0.0044459 -0.00191209 1.16713e-21)
(0.00207124 -0.000841862 1.49186e-23)
(0.000677997 -9.46746e-05 3.61162e-22)
(1.6824e-05 0.000272241 -1.90097e-23)
(-0.000160849 0.000291944 -1.08309e-24)
(-0.000106952 0.000126286 7.8312e-25)
(-2.63152e-05 1.07926e-05 0)
(-4.10569e-05 -1.93102e-05 -1.21517e-26)
(-0.00013598 -0.000159209 -2.99588e-23)
(-0.000134463 -0.000301769 -1.7198e-24)
(0.000205845 -0.000200256 4.88223e-24)
(0.0011504 0.000276309 -5.74698e-24)
(0.00295782 0.00113803 0)
(0.00587574 0.00230216 0)
(0.0100581 0.00360389 0)
(0.015478 0.0048275 7.05678e-22)
(0.0218793 0.00573841 4.54507e-25)
(0.02878 0.0061228 8.0382e-22)
(0.0355331 0.00583366 -6.49647e-22)
(0.0414247 0.00482866 -2.65365e-23)
(0.0457882 0.00318953 -1.84271e-22)
(0.04811 0.00111428 1.53557e-23)
(0.0481115 -0.00111619 -1.39148e-23)
(0.0457921 -0.00319125 -1.72495e-22)
(0.0414299 -0.0048299 4.62904e-24)
(0.0355381 -0.00583407 -4.52491e-24)
(0.0287835 -0.00612203 1.46708e-21)
(0.0218803 -0.00573629 0)
(0.0154764 -0.00482414 7.5099e-22)
(0.0100544 -0.00359969 -1.00613e-23)
(0.00587112 -0.00229773 -5.7053e-22)
(0.00295336 -0.00113402 -6.66844e-25)
(0.00114692 -0.000273225 -6.32918e-24)
(0.000203619 0.000202192 2.79572e-22)
(-0.00013555 0.000302642 -3.02731e-24)
(-0.000136323 0.000159391 0)
(-4.11146e-05 1.93004e-05 0)
(-5.8585e-05 -3.01687e-05 3.85586e-24)
(-0.00015609 -0.000188379 -1.2968e-23)
(-6.10592e-05 -0.000290286 -2.2057e-22)
(0.000489164 -9.80536e-05 5.14765e-24)
(0.00176589 0.00048562 -6.01999e-24)
(0.00403373 0.00144889 4.88332e-22)
(0.00752917 0.00268344 -5.72927e-22)
(0.0123669 0.00400593 9.92697e-24)
(0.0184637 0.00519724 -7.24994e-22)
(0.0255041 0.00603408 6.79698e-22)
(0.0329589 0.0063245 1.12788e-23)
(0.0401532 0.00594597 5.4784e-23)
(0.046365 0.00487486 -4.8607e-22)
(0.0509326 0.0032002 1.513e-22)
(0.053353 0.00111443 -1.5423e-23)
(0.0533547 -0.00111696 0)
(0.0509372 -0.00320246 0)
(0.0463712 -0.00487651 4.20601e-24)
(0.0401595 -0.00594665 -5.70672e-22)
(0.0329637 -0.00632386 -7.0577e-22)
(0.0255063 -0.00603197 -6.72224e-22)
(0.0184629 -0.00519378 0)
(0.0123637 -0.00400156 9.71004e-24)
(0.00752454 -0.00267879 5.421e-22)
(0.00402893 -0.00144461 7.26496e-24)
(0.00176189 -0.000482236 3.89274e-22)
(0.000486409 0.000100276 -4.25173e-24)
(-6.25552e-05 0.000291387 3.45581e-24)
(-0.000156649 0.000188671 -4.50274e-23)
(-5.86972e-05 3.01689e-05 -2.60546e-26)
(-7.65891e-05 -4.30697e-05 -6.13135e-24)
(-0.000156211 -0.000209995 1.1734e-22)
(7.79656e-05 -0.000254332 2.27263e-22)
(0.000887375 3.36867e-05 3.32485e-22)
(0.00254471 0.000719361 0)
(0.00531609 0.00176936 -5.05957e-22)
(0.00941692 0.00305068 3.65695e-23)
(0.0149159 0.00436748 0)
(0.0216727 0.00550381 -6.33301e-22)
(0.0293174 0.00625258 -7.06728e-22)
(0.0372812 0.00644584 -6.04235e-22)
(0.0448699 0.0059851 5.58195e-23)
(0.0513606 0.00486331 2.38242e-22)
(0.0561024 0.00317415 -1.51623e-22)
(0.0586056 0.00110199 -3.89546e-25)
(0.0586075 -0.00110522 3.4172e-25)
(0.0561076 -0.00317704 1.01453e-24)
(0.0513679 -0.00486545 -1.33559e-24)
(0.0448775 -0.00598609 5.06671e-23)
(0.0372873 -0.00644535 4.47479e-24)
(0.0293208 -0.00625048 6.88554e-22)
(0.0216729 -0.00550027 6.0691e-22)
(0.0149133 -0.00436296 -9.31178e-24)
(0.00941246 -0.00304583 -5.43065e-22)
(0.00531106 -0.00176483 -3.46002e-25)
(0.00254023 -0.000715707 -4.12065e-22)
(0.000884078 -3.1197e-05 3.28278e-22)
(7.60018e-05 0.000255663 -6.66919e-24)
(-0.000157059 0.000210417 4.98107e-23)
(-7.67875e-05 4.30867e-05 -2.90316e-24)
(-9.09358e-05 -5.74567e-05 2.09309e-24)
(-0.000122124 -0.000220475 -6.78036e-23)
(0.000302051 -0.000192961 -3.59344e-24)
(0.00141936 0.000191335 -5.04268e-24)
(0.0035035 0.000971014 6.35222e-24)
(0.00681675 0.00209091 7.61376e-24)
(0.0115442 0.00339565 5.3704e-22)
(0.0177044 0.00468333 9.09975e-24)
(0.0251011 0.00574678 1.23145e-21)
(0.0333154 0.00639846 -9.25463e-24)
(0.0417467 0.00649522 1.18751e-21)
(0.0496889 0.00596117 5.36458e-22)
(0.0564239 0.00480347 0)
(0.061315 0.00311803 -1.24508e-22)
(0.063888 0.00107934 0)
(0.0638901 -0.00108337 0)
(0.0613208 -0.00312163 0)
(0.0564322 -0.00480616 1.80125e-22)
(0.0496978 -0.00596252 5.22136e-22)
(0.0417543 -0.0064949 5.33537e-22)
(0.0333202 -0.00639639 0)
(0.0251025 -0.00574317 -6.23471e-22)
(0.0177026 -0.00467868 5.50589e-22)
(0.0115401 -0.00339061 8.12548e-24)
(0.00681163 -0.00208617 -1.99023e-25)
(0.00349862 -0.000967119 -6.45876e-24)
(0.00141553 -0.000188602 5.24744e-25)
(0.000299573 0.000194514 0)
(-0.000123336 0.000221043 8.44707e-23)
(-9.1261e-05 5.74985e-05 1.50221e-24)
(-9.51992e-05 -7.25648e-05 0)
(-3.63074e-05 -0.000216693 1.11787e-22)
(0.000631656 -0.000106828 -4.2073e-24)
(0.00210376 0.000370293 -8.87868e-24)
(0.00465815 0.00123384 6.41977e-24)
(0.00854638 0.0024055 -7.37253e-24)
(0.0139153 0.00371139 5.07364e-22)
(0.0207315 0.00494994 -5.31873e-22)
(0.0287457 0.00592705 -5.97693e-22)
(0.037496 0.00647688 -8.51258e-24)
(0.046357 0.0064807 -5.58351e-22)
(0.0546168 0.0058833 7.46739e-25)
(0.0615666 0.00470354 3.3038e-24)
(0.0665864 0.00303749 1.25096e-22)
(0.0692188 0.00104848 -1.07118e-23)
(0.0692212 -0.00105341 0)
(0.0665929 -0.00304188 1.09429e-24)
(0.0615759 -0.00470686 -1.8216e-22)
(0.054627 -0.00588507 -3.80795e-24)
(0.046366 -0.0064806 -1.02703e-21)
(0.0375023 -0.00647485 -5.16043e-22)
(0.0287484 -0.00592336 -8.46507e-24)
(0.0207306 -0.00494513 -5.66318e-22)
(0.0139117 -0.00370616 1.5671e-23)
(0.0085413 -0.00240055 -6.31325e-26)
(0.00465296 -0.00122972 3.93581e-22)
(0.00209942 -0.000367338 -6.86267e-22)
(0.000628636 0.00010859 0)
(-3.79601e-05 0.000217416 -8.8449e-23)
(-9.57001e-05 7.26399e-05 1.30712e-24)
(-8.02806e-05 -8.74785e-05 0)
(0.000121815 -0.000196266 -1.10599e-22)
(0.00108769 1.89862e-06 -4.75379e-24)
(0.0029588 0.000565359 -3.56103e-22)
(0.00602373 0.00150112 -6.42951e-24)
(0.0105145 0.00270576 -4.41847e-22)
(0.0165339 0.0039923 -5.07461e-22)
(0.0239967 0.0051652 5.38948e-22)
(0.0326044 0.0060466 -8.08683e-24)
(0.0418584 0.00649334 -4.99381e-22)
(0.0511147 0.00640999 8.07094e-24)
(0.0596609 0.00575971 0)
(0.0668004 0.00457065 0)
(0.0719318 0.00293731 0)
(0.0746151 0.0010111 2.05628e-23)
(0.0746176 -0.00101703 0)
(0.0719389 -0.00294259 8.84327e-23)
(0.0668106 -0.00457467 9.68609e-25)
(0.0596723 -0.00576194 0)
(0.0511253 -0.00641013 4.92772e-22)
(0.0418663 -0.00649136 1.01725e-21)
(0.0326086 -0.00604282 -4.98481e-22)
(0.023997 -0.00516023 4.73942e-22)
(0.0165309 -0.00398688 -8.31242e-26)
(0.0105096 -0.0027006 4.36507e-22)
(0.00601833 -0.00149679 -4.09878e-22)
(0.002954 -0.000562198 3.52134e-22)
(0.00108411 5.37604e-08 -2.87223e-22)
(0.00011965 0.000197148 0)
(-8.10132e-05 8.7595e-05 0)
(-3.41318e-05 -0.000101208 0)
(0.000375421 -0.000157795 0)
(0.00169096 0.000129764 2.99064e-22)
(0.00400218 0.000771076 5.63476e-24)
(0.00761443 0.00176634 -6.38747e-24)
(0.0127297 0.00298516 4.43905e-22)
(0.0194031 0.00423413 1.44907e-23)
(0.0274998 0.00532834 -7.63879e-24)
(0.0366764 0.00610825 0)
(0.0464032 0.00645351 4.97347e-22)
(0.0560235 0.00629031 4.31388e-22)
(0.0648285 0.00559774 -2.66606e-24)
(0.0721364 0.004411 1.45377e-22)
(0.0773653 0.00282159 -2.63599e-25)
(0.0800923 0.000968637 -9.58202e-24)
(0.080095 -0.000975645 5.51147e-24)
(0.077373 -0.00282784 -8.96249e-23)
(0.0721476 -0.00441578 1.29902e-22)
(0.0648412 -0.00560049 -3.41608e-22)
(0.0560356 -0.00629072 0)
(0.0464126 -0.0064516 -4.01408e-23)
(0.036682 -0.00610439 9.39086e-22)
(0.0275013 -0.00532319 -4.80861e-22)
(0.019401 -0.0042285 1.61611e-25)
(0.0127251 -0.00297978 -2.79658e-23)
(0.00760894 -0.0017618 3.78997e-22)
(0.003997 -0.000767719 3.47678e-22)
(0.00168685 -0.000127639 2.93529e-22)
(0.000372684 0.000158832 4.06173e-24)
(-3.51572e-05 0.000101373 0)
(5.83843e-05 -0.000112774 0)
(0.000749672 -0.000101005 1.61993e-22)
(0.00246176 0.000272341 -6.13742e-22)
(0.00525108 0.000982037 -3.57527e-22)
(0.00944353 0.00202339 -3.83707e-22)
(0.0151994 0.00323813 6.41209e-24)
(0.0225258 0.00443392 -6.91255e-24)
(0.0312411 0.00543969 0)
(0.0409613 0.0061155 -4.3011e-22)
(0.0511317 0.00636315 4.10292e-22)
(0.0610879 0.00612842 -4.23377e-22)
(0.0701276 0.00540394 2.98805e-24)
(0.0775857 0.00422996 -2.72219e-22)
(0.0829 0.00269383 0)
(0.0856649 0.00092229 0)
(0.0856678 -0.000930462 -5.75168e-24)
(0.0829082 -0.00270112 7.79782e-25)
(0.0775977 -0.00423557 -1.55586e-23)
(0.0701415 -0.00540727 3.40935e-22)
(0.0611014 -0.00612914 3.63524e-22)
(0.0511428 -0.00636131 -8.35225e-22)
(0.0409685 -0.00611154 -4.55106e-22)
(0.031244 -0.00543434 6.8724e-24)
(0.0225247 -0.00442803 -6.47007e-24)
(0.0151954 -0.00323251 -4.11774e-22)
(0.00943809 -0.00201862 -3.94325e-22)
(0.00524559 -0.000978485 -3.63785e-22)
(0.00245715 -0.000270059 -2.88816e-22)
(0.000746316 0.000102191 1.93956e-24)
(5.70031e-05 0.000112995 -1.46805e-24)
(0.000215474 -0.000121297 -1.46278e-22)
(0.00127097 -2.67949e-05 -2.55476e-24)
(0.00341953 0.000424618 6.01083e-22)
(0.00672212 0.00119312 3.68437e-22)
(0.0115234 0.00226661 3.93106e-22)
(0.0179305 0.00346014 -6.03389e-24)
(0.025905 0.00458989 6.48151e-24)
(0.0352213 0.00550057 0)
(0.04546 0.00607231 4.34791e-22)
(0.0560466 0.00622794 -4.20528e-22)
(0.0663128 0.00593061 0)
(0.0755659 0.00518419 0)
(0.0831584 0.00403218 1.29483e-22)
(0.0885481 0.00255699 2.17137e-25)
(0.091346 0.00087308 7.33453e-24)
(0.0913491 -0.000882495 1.66132e-25)
(0.0885568 -0.0025654 -1.65298e-25)
(0.0831713 -0.00403869 -1.14421e-22)
(0.075581 -0.00518814 2.73537e-22)
(0.0663277 -0.00593166 -6.89367e-22)
(0.0560593 -0.00622618 4.04763e-22)
(0.0454688 -0.00606824 -5.91959e-24)
(0.0352256 -0.00549499 3.77048e-22)
(0.025905 -0.00458372 0)
(0.0179271 -0.00345424 6.14117e-24)
(0.0115182 -0.00226159 -5.61465e-24)
(0.00671643 -0.00118936 0)
(0.00341447 -0.000422186 5.83136e-22)
(0.00126698 2.81192e-05 0)
(0.000213676 0.000121579 -1.43098e-22)
(0.000458227 -0.000126074 1.539e-22)
(0.0019662 6.2825e-05 1.52212e-22)
(0.00458269 0.000581391 -3.03292e-22)
(0.0084314 0.00139963 5.37757e-24)
(0.0138654 0.00249094 -5.98975e-24)
(0.0209291 0.00364771 3.58714e-22)
(0.0295432 0.0047014 -1.1789e-23)
(0.0394416 0.00551307 6.07724e-24)
(0.050174 0.00598298 3.57069e-22)
(0.0611509 0.00605341 -5.35059e-24)
(0.0717037 0.00570266 -3.10604e-22)
(0.0811514 0.0049437 4.72527e-25)
(0.0888647 0.00382172 1.06495e-22)
(0.0943211 0.00241361 -1.97022e-25)
(0.0971478 0.000821871 -7.38898e-24)
(0.097151 -0.000832601 -1.45069e-25)
(0.0943302 -0.00242321 7.56181e-25)
(0.0888784 -0.0038292 9.22412e-23)
(0.0811676 -0.00494832 -3.60453e-23)
(0.0717201 -0.00570409 3.93354e-23)
(0.0611652 -0.00605175 0)
(0.0501846 -0.00597878 -3.36566e-22)
(0.0394475 -0.00550722 -7.30786e-22)
(0.0295445 -0.0046949 5.50491e-24)
(0.0209266 -0.00364149 3.4535e-22)
(0.0138605 -0.00248564 -5.30877e-24)
(0.00842562 -0.00139564 0)
(0.00457726 -0.000578808 -2.9941e-22)
(0.00196156 -6.13721e-05 1.39158e-24)
(0.000455956 0.000126421 1.55446e-22)
(0.000810263 -0.000126641 2.72433e-22)
(0.0028619 0.000164888 -1.80391e-22)
(0.00596858 0.00073764 -2.83731e-22)
(0.0103945 0.00159741 0)
(0.01648 0.00269196 0)
(0.0242008 0.00379846 -3.65284e-22)
(0.0334436 0.00476874 5.57786e-24)
(0.043904 0.00547989 3.28109e-22)
(0.0551057 0.00585198 -3.79363e-23)
(0.0664485 0.00584491 3.03775e-22)
(0.0772665 0.00544991 3.23149e-22)
(0.0868919 0.00468708 -3.95539e-24)
(0.0947139 0.00360209 -1.03275e-22)
(0.10023 0.00226586 0)
(0.103082 0.000769395 0)
(0.103085 -0.000781507 0)
(0.100239 -0.00227671 0)
(0.0947283 -0.0036106 -8.99745e-23)
(0.0869091 -0.00469244 -2.43748e-22)
(0.0772842 -0.00545175 5.45376e-22)
(0.0664643 -0.00584337 2.89839e-22)
(0.0551179 -0.00584766 3.36129e-23)
(0.0439115 -0.00547375 4.31134e-23)
(0.0334462 -0.00476187 3.17138e-25)
(0.0241993 -0.00379187 -3.21507e-23)
(0.0164756 -0.00268634 6.12733e-25)
(0.0103888 -0.00159315 -5.0382e-24)
(0.00596288 -0.000734891 0)
(0.00285666 -0.000163313 0)
(0.000807474 0.00012706 0)
(0.00129726 -0.000122819 -6.56183e-22)
(0.00398365 0.000275711 -2.73609e-22)
(0.00759359 0.000888836 2.88891e-22)
(0.0126265 0.00178279 -3.35392e-22)
(0.0193768 0.00286599 0)
(0.0277511 0.00391105 0)
(0.0376092 0.00479304 0)
(0.0486106 0.00540422 -3.32447e-22)
(0.0602579 0.0056839 -6.12637e-22)
(0.0719436 0.00560753 -3.20491e-22)
(0.0830072 0.00517721 2.55452e-22)
(0.092795 0.00441846 1.96422e-24)
(0.100715 0.00337634 -8.43137e-23)
(0.106283 0.00211558 0)
(0.109158 0.000716272 0)
(0.109161 -0.000729824 0)
(0.106293 -0.00212775 4.71826e-25)
(0.10073 -0.00338592 6.99393e-23)
(0.092813 -0.0044246 0)
(0.0830261 -0.00517949 -2.5838e-22)
(0.0719609 -0.00560612 -2.87431e-22)
(0.0602717 -0.00567945 3.05093e-22)
(0.0486197 -0.00539777 3.13736e-22)
(0.0376133 -0.00478575 2.87514e-22)
(0.0277507 -0.00390402 -3.24516e-22)
(0.019373 -0.00285998 5.309e-24)
(0.0126209 -0.00177823 1.66974e-25)
(0.00758773 -0.000885895 -4.40573e-24)
(0.00397785 -0.000274015 0)
(0.00129392 0.000123315 0)
(0.00194636 -0.000114722 8.32698e-22)
(0.00535547 0.000391181 2.23271e-22)
(0.00947331 0.00103116 0)
(0.0151419 0.00195264 3.45353e-22)
(0.0225642 0.00301006 0)
(0.031585 0.00398509 0)
(0.0420433 0.0047761 2.70006e-22)
(0.0535642 0.00528962 0)
(0.0656339 0.0054833 3.35637e-23)
(0.0776409 0.00534607 -3.89101e-24)
(0.0889318 0.00488899 -2.50834e-22)
(0.0988681 0.00414147 -1.42093e-24)
(0.106877 0.00314709 1.618e-22)
(0.112492 0.00196436 2.50035e-23)
(0.115386 0.000663026 0)
(0.115389 -0.00067807 0)
(0.112502 -0.0019779 4.11153e-25)
(0.106892 -0.0031578 -7.11964e-23)
(0.098887 -0.00414843 0)
(0.0889518 -0.00489176 0)
(0.0776597 -0.00534482 3.90853e-24)
(0.0656494 -0.00547872 -3.79651e-24)
(0.0535751 -0.00528282 2.50708e-22)
(0.0420489 -0.00476835 -2.91263e-22)
(0.0315858 -0.00397756 4.51918e-24)
(0.0225612 -0.00300362 -4.20511e-24)
(0.0151366 -0.00194772 0)
(0.00946741 -0.00102799 -2.62244e-22)
(0.0053492 -0.000389354 -8.69449e-24)
(0.00194246 0.000115303 -4.46974e-22)
(0.00278557 -0.000102746 -4.78365e-22)
(0.00699949 0.000507065 -1.84396e-22)
(0.0116227 0.00116163 2.8908e-22)
(0.0179546 0.00210425 3.06755e-22)
(0.0260502 0.00312206 -4.82146e-24)
(0.0357076 0.00402109 3.99036e-24)
(0.0467495 0.00472027 -3.70694e-23)
(0.0587681 0.00513986 -2.37503e-22)
(0.0712377 0.00525469 4.95007e-22)
(0.0835453 0.00506507 -3.47437e-24)
(0.0950464 0.00458927 3.54876e-24)
(0.105118 0.00385931 8.51574e-23)
(0.113207 0.00291663 -1.4242e-22)
(0.118863 0.00181355 -2.52593e-23)
(0.121774 0.000610104 -4.90871e-24)
(0.121778 -0.000626682 -1.51123e-24)
(0.118874 -0.00182849 7.79026e-26)
(0.113223 -0.00292852 -5.33257e-23)
(0.105138 -0.00386713 -7.22277e-23)
(0.0950675 -0.00459256 0)
(0.0835654 -0.00506399 0)
(0.0712547 -0.00524998 0)
(0.0587806 -0.0051327 -2.53467e-22)
(0.0467567 -0.00471201 3.62108e-24)
(0.0357097 -0.004013 4.06759e-24)
(0.0260482 -0.0031151 -8.41641e-24)
(0.0179497 -0.00209889 4.2365e-24)
(0.0116169 -0.00115816 1.22145e-24)
(0.00699285 -0.000505085 -3.11165e-23)
(0.00278112 0.000103427 4.74174e-22)
(0.00384312 -8.75306e-05 0)
(0.00893576 0.000619301 5.29586e-23)
(0.0140565 0.00127809 7.20003e-24)
(0.0210776 0.0022353 -3.11174e-22)
(0.0298418 0.00320068 -2.2482e-22)
(0.040124 0.0040203 3.85598e-24)
(0.0517315 0.0046283 -2.48819e-22)
(0.0642257 0.00495888 4.54542e-22)
(0.0770732 0.00500241 -2.37658e-22)
(0.0896617 0.0047687 1.95867e-22)
(0.101357 0.00428167 1.77749e-24)
(0.111553 0.00357481 -8.55768e-23)
(0.119713 0.00268692 6.80736e-23)
(0.125406 0.00166427 -2.0347e-23)
(0.128332 0.00055788 5.06638e-24)
(0.128335 -0.000576027 2.46268e-24)
(0.125416 -0.00168066 3.06383e-25)
(0.119729 -0.00270003 5.33118e-23)
(0.111573 -0.00358354 7.15094e-23)
(0.101379 -0.00428552 1.15547e-24)
(0.089683 -0.00476783 2.99009e-24)
(0.0770918 -0.00499758 -2.91525e-24)
(0.0642398 -0.00495134 1.88847e-22)
(0.0517403 -0.00461949 0)
(0.0401275 -0.00401159 -2.09442e-22)
(0.0298409 -0.00319314 0)
(0.0210733 -0.00222944 2.64851e-22)
(0.014051 -0.00127426 2.84849e-22)
(0.00892889 -0.000617134 3.88337e-23)
(0.00383814 8.83319e-05 -6.80797e-22)
(0.00514688 -6.99021e-05 -8.17503e-22)
(0.0111823 0.000724253 3.52766e-23)
(0.0167892 0.00137915 -3.14246e-22)
(0.0245232 0.00234384 0)
(0.0339457 0.00324547 4.21669e-22)
(0.0448393 0.00398461 -1.97562e-22)
(0.0569933 0.00450327 -6.41617e-24)
(0.0699408 0.00475066 -2.50937e-23)
(0.083145 0.00473067 0)
(0.0959954 0.00446088 -2.0006e-22)
(0.10787 0.00396945 2.79128e-24)
(0.118178 0.00329046 -1.01418e-24)
(0.126402 0.00245966 1.39927e-24)
(0.132127 0.00151751 1.8016e-24)
(0.135065 0.000506672 -4.4837e-24)
(0.135069 -0.000526411 -9.74261e-25)
(0.132137 -0.00153537 -1.0732e-23)
(0.126418 -0.00247402 -2.59906e-25)
(0.118198 -0.00330013 0)
(0.107892 -0.00397389 0)
(0.0960178 -0.00446023 0)
(0.0831649 -0.00472573 0)
(0.0699566 -0.00474272 -1.94186e-22)
(0.0570038 -0.00449386 2.75731e-24)
(0.0448444 -0.00397521 2.16677e-22)
(0.0339459 -0.00323725 -2.99288e-24)
(0.0245197 -0.0023374 -2.72536e-22)
(0.016784 -0.00137488 -1.06652e-24)
(0.0111753 -0.000721846 9.89649e-23)
(0.00514144 7.08525e-05 1.52725e-21)
(0.00672392 -5.08002e-05 8.64397e-22)
(0.0137551 0.000818885 -2.52421e-26)
(0.0198352 0.00146406 3.66593e-22)
(0.0283027 0.00242827 0)
(0.0383679 0.00325678 -1.99825e-22)
(0.0498588 0.00391637 2.01818e-22)
(0.062539 0.00434843 1.62124e-22)
(0.0759176 0.00451917 -2.34128e-23)
(0.0894573 0.00444342 -1.58081e-22)
(0.102551 0.00414517 -1.54317e-22)
(0.11459 0.00365553 1.37751e-24)
(0.125 0.00300842 1.94622e-25)
(0.13328 0.00223631 1.24984e-24)
(0.139033 0.00137408 3.46575e-23)
(0.141982 0.000456745 4.4944e-24)
(0.141985 -0.000478093 0)
(0.139044 -0.00139344 1.12154e-23)
(0.133297 -0.00225194 -2.20052e-25)
(0.125021 -0.00301907 0)
(0.114613 -0.0036606 0)
(0.102575 -0.00414478 2.20406e-24)
(0.0894786 -0.00443839 -1.34218e-22)
(0.0759349 -0.00451083 -1.37787e-22)
(0.0625511 -0.0043384 -1.39066e-22)
(0.0498654 -0.00390621 2.30114e-25)
(0.0383695 -0.00324781 1.56739e-22)
(0.0283 -0.00242116 1.90019e-22)
(0.0198305 -0.00145926 -1.53666e-25)
(0.0137483 -0.000816173 7.46233e-23)
(0.00671809 5.19394e-05 -1.81491e-21)
(0.00860012 -3.12042e-05 0)
(0.0166689 0.000900877 0)
(0.0232089 0.00153255 -3.79453e-22)
(0.0324263 0.00248737 2.66559e-24)
(0.0431145 0.00323575 -1.55885e-22)
(0.055188 0.00381827 1.57403e-22)
(0.0683728 0.00416721 -1.66966e-22)
(0.0821601 0.00426832 -1.63091e-22)
(0.0960148 0.00414442 1.57533e-22)
(0.109335 0.00382486 2.03273e-23)
(0.121524 0.00334252 -1.21867e-22)
(0.132024 0.00273059 0)
(0.140354 0.0020181 0)
(0.14613 0.00123468 -1.67108e-23)
(0.149088 0.000408322 0)
(0.149091 -0.000431285 3.35963e-26)
(0.146141 -0.00125554 -3.35102e-26)
(0.140371 -0.00203502 2.81726e-23)
(0.132045 -0.00274225 0)
(0.121547 -0.00334825 0)
(0.109359 -0.00382476 1.06046e-22)
(0.0960373 -0.00413931 1.3166e-22)
(0.0821789 -0.00425957 1.37544e-22)
(0.0683865 -0.00415652 1.43691e-22)
(0.0551962 -0.00380731 4.49666e-24)
(0.0431175 -0.00322595 -1.62051e-22)
(0.0324247 -0.00247951 -3.44704e-22)
(0.0232048 -0.00152712 -3.9882e-22)
(0.0166622 -0.000897778 8.82301e-23)
(0.00859399 3.25839e-05 1.00091e-21)
(0.0107999 -1.2062e-05 0)
(0.0199368 0.000968644 0)
(0.0269246 0.00158464 -4.64454e-22)
(0.0369033 0.00252034 -1.07014e-22)
(0.0481914 0.0031842 2.87443e-22)
(0.0608321 0.00369322 -1.57321e-22)
(0.0744988 0.00396306 -1.1393e-22)
(0.0886729 0.00400189 1.18786e-22)
(0.102822 0.00383716 0)
(0.11635 0.00350291 1.32397e-22)
(0.128675 0.00303272 2.35411e-22)
(0.139257 0.00245863 1.40779e-25)
(0.147629 0.00180609 9.98736e-25)
(0.153425 0.00109988 -2.74703e-25)
(0.156389 0.000361588 0)
(0.156392 -0.000386162 0)
(0.153435 -0.00112225 1.53469e-25)
(0.147646 -0.00182432 -5.19737e-23)
(0.139278 -0.00247131 3.19835e-23)
(0.1287 -0.00303914 7.9373e-23)
(0.116375 -0.00350313 -1.03568e-22)
(0.102846 -0.00383199 -1.51954e-24)
(0.088693 -0.00399275 -9.3664e-23)
(0.0745142 -0.0039517 1.82997e-24)
(0.0608419 -0.0036814 1.09541e-22)
(0.0481958 -0.00317349 -1.9033e-24)
(0.0369028 -0.00251164 1.50348e-22)
(0.0269213 -0.00157848 -3.83651e-23)
(0.0199305 -0.000965062 -2.66644e-22)
(0.0107936 1.37471e-05 0)
(0.0133463 5.77044e-06 0)
(0.0235711 0.0010213 4.44338e-22)
(0.0309965 0.00162054 4.76477e-22)
(0.041742 0.00252688 1.11551e-22)
(0.0536044 0.00310452 -2.567e-22)
(0.0667967 0.00354423 1.04086e-22)
(0.0809215 0.00373947 2.00469e-23)
(0.0954601 0.0037235 -1.22026e-22)
(0.109883 0.00352488 3.9894e-26)
(0.123603 0.00318204 8.20012e-26)
(0.136051 0.00272818 -1.078e-22)
(0.146703 0.00219393 4.20775e-23)
(0.155111 0.00160118 3.54149e-23)
(0.160921 0.000970156 -2.48282e-25)
(0.16389 0.000316693 0)
(0.163893 -0.000342865 0)
(0.160931 -0.000994024 1.25284e-25)
(0.155127 -0.00162072 2.34981e-23)
(0.146724 -0.00220766 -3.22936e-23)
(0.136075 -0.00273532 -7.98583e-23)
(0.123628 -0.00318261 0)
(0.109908 -0.00351968 7.32362e-23)
(0.0954815 -0.00371397 9.35491e-23)
(0.0809384 -0.00372742 2.74051e-24)
(0.0668081 -0.00353152 -1.12781e-22)
(0.0536103 -0.00309281 0)
(0.0417428 -0.00251724 4.86232e-24)
(0.030994 -0.00161354 4.6198e-22)
(0.0235653 -0.00101712 4.46637e-22)