/*--------------------------------*- C++ -*----------------------------------*\
| =========                 |                                                 |
| \\      /  F ield         | OpenFOAM: The Open Source CFD Toolbox           |
|  \\    /   O peration     | Version:  2.4.0                                 |
|   \\  /    A nd           | Web:      www.OpenFOAM.org                      |
|    \\/     M anipulation  |                                                 |
\*---------------------------------------------------------------------------*/
FoamFile
{
    version     2.0;
    format      ascii;
    class       volScalarField;
    location    "0.05";
    object      p;
}
// * * * * * * * * * * * * * * * * * * * * * * * * * * * * * * * * * * * * * //

dimensions      [0 2 -2 0 0 0 0];

internalField   nonuniform List<scalar> 
7200
(
4.12286e-06
-0.0846875
-0.0203346
0.323994
0.749846
1.11365
1.4216
1.69425
1.91188
2.02646
1.99259
1.78714
1.4164
0.910851
0.318909
-0.302115
-0.891391
-1.39222
-1.75719
-1.95699
-1.98629
-1.8688
-1.64989
-1.37709
-1.06935
-0.705556
-0.279446
0.0651349
0.129505
0.0447795
-0.015742
-0.0943449
0.0502216
0.446595
0.851995
1.17075
1.43713
1.6691
1.84433
1.92053
1.86179
1.65215
1.29986
0.83237
0.291475
-0.274067
-0.812559
-1.27575
-1.62271
-1.827
-1.88123
-1.80193
-1.62513
-1.39273
-1.12645
-0.807736
-0.402121
-0.00547771
0.139165
0.060535
-0.0357259
-0.0883578
0.141894
0.56643
0.934541
1.20753
1.43534
1.62926
1.76604
1.80953
1.73179
1.52212
1.18972
0.758993
0.26595
-0.247972
-0.738834
-1.16563
-1.4931
-1.69771
-1.77103
-1.72433
-1.58571
-1.3911
-1.16325
-0.890304
-0.522021
-0.0972149
0.133165
0.0805301
-0.0585674
-0.0623653
0.248985
0.676936
0.99854
1.229
1.42226
1.58235
1.6866
1.70421
1.61317
1.40632
1.09309
0.695176
0.243836
-0.225369
-0.674707
-1.069
-1.37763
-1.57968
-1.66642
-1.64553
-1.53924
-1.37823
-1.18478
-0.954326
-0.632583
-0.20437
0.107148
0.103379
-0.0820446
-0.0126975
0.368552
0.776912
1.04687
1.23815
1.39969
1.5292
1.60547
1.60218
1.50189
1.29988
1.00542
0.637699
0.223989
-0.20508
-0.616941
-0.981293
-1.27146
-1.46891
-1.56502
-1.565
-1.48653
-1.3559
-1.19401
-1.00269
-0.732609
-0.323998
0.0574479
0.126854
-0.102357
0.0630694
0.494855
0.863003
1.08027
1.2362
1.36858
1.47059
1.52289
1.50282
1.39647
1.20082
0.924721
0.585151
0.205903
-0.186579
-0.564111
-0.900549
-1.17261
-1.36393
-1.46623
-1.48299
-1.42838
-1.32507
-1.19217
-1.03613
-0.818748
-0.45036
-0.0183545
0.147157
-0.114297
0.165279
0.620599
0.931975
1.09924
1.22394
1.32981
1.4076
1.43977
1.4066
1.29688
1.10874
0.850486
0.537106
0.189419
-0.169702
-0.51579
-0.826241
-1.0807
-1.26473
-1.37053
-1.40042
-1.36585
-1.28661
-1.18007
-1.05516
-0.887772
-0.576163
-0.120602
0.159084
-0.11151
0.291669
0.738081
0.982025
1.10488
1.20234
1.28443
1.34134
1.35699
1.31395
1.2031
1.02328
0.782248
0.493196
0.174401
-0.154306
-0.471604
-0.757908
-0.995363
-1.17126
-1.27834
-1.31814
-1.30003
-1.24154
-1.15864
-1.06088
-0.937879
-0.693707
-0.247033
0.156281
-0.0868351
0.437219
0.839989
1.01286
1.09864
1.17237
1.23348
1.27283
1.27525
1.22513
1.11495
0.944022
0.719506
0.453036
0.160708
-0.140244
-0.431168
-0.695052
-0.916183
-1.08338
-1.18993
-1.23686
-1.23195
-1.19092
-1.12887
-1.05474
-0.96878
-0.795684
-0.39263
0.131588
-0.0327691
0.594257
0.920115
1.02551
1.08204
1.135
1.17804
1.20301
1.19513
1.1403
1.03223
0.870528
0.661792
0.416275
0.148211
-0.127385
-0.394126
-0.637202
-0.842732
-1.00088
-1.10544
-1.15716
-1.16253
-1.13581
-1.09172
-1.03827
-0.981514
-0.875887
-0.549724
0.0775002
0.0579671
0.752849
0.973987
1.02209
1.05651
1.0912
1.11916
1.13271
1.11711
1.05954
0.95472
0.802401
0.608679
0.382597
0.136796
-0.115612
-0.360164
-0.583937
-0.774614
-0.92354
-1.02499
-1.07951
-1.09261
-1.07725
-1.04815
-1.01288
-0.978186
-0.929846
-0.708383
-0.0132626
0.191816
0.901434
0.999357
1.00541
1.02327
1.04193
1.05786
1.06266
1.04156
0.982894
0.882185
0.739267
0.559786
0.351722
0.126361
-0.104821
-0.328999
-0.534871
-0.711457
-0.851134
-0.948594
-1.00429
-1.02292
-1.01626
-0.999127
-0.979801
-0.961609
-0.955314
-0.857051
-0.147146
0.373778
1.02768
0.996458
0.978559
0.983295
0.988199
0.995084
0.993484
0.968776
0.910349
0.814389
0.680774
0.514761
0.323399
0.116817
-0.0949205
-0.30038
-0.489659
-0.652912
-0.783427
-0.87626
-0.931802
-0.954065
-0.953791
-0.945636
-0.939993
-0.934881
-0.952525
-0.9834
-0.329155
0.606881
1.11948
0.968008
0.944508
0.93733
0.931045
0.93171
0.925706
0.898979
0.841853
0.751093
0.626594
0.473286
0.297402
0.108083
-0.0858281
-0.27408
-0.447982
-0.598655
-0.720185
-0.807935
-0.86226
-0.886581
-0.890701
-0.888719
-0.894205
-0.900958
-0.924193
-1.07531
-0.56232
0.891774
1.16591
0.918943
0.905697
0.885989
0.871546
0.868498
0.85975
0.832323
0.777326
0.692059
0.576421
0.435074
0.273527
0.100084
-0.0774707
-0.249896
-0.409552
-0.548382
-0.661174
-0.743543
-0.795824
-0.820888
-0.827754
-0.829452
-0.843045
-0.862284
-0.875254
-1.12188
-0.847293
1.2265
1.15826
0.855927
0.863781
0.829857
0.810793
0.80609
0.795958
0.768906
0.716664
0.637054
0.52997
0.399859
0.25159
0.0927577
-0.0697826
-0.227644
-0.374108
-0.501809
-0.606163
-0.682982
-0.732592
-0.757331
-0.76559
-0.768919
-0.787093
-0.820507
-0.812368
-1.11437
-1.18212
1.60648
1.0907
0.786678
0.819479
0.769616
0.749839
0.745003
0.734598
0.708778
0.659743
0.585852
0.486977
0.367403
0.231426
0.0860437
-0.062705
-0.20716
-0.34141
-0.458675
-0.554928
-0.626132
-0.672618
-0.696178
-0.704728
-0.708173
-0.727027
-0.776345
-0.743248
-1.04697
-1.56221
2.02466
0.960891
0.719196
0.772581
0.706152
0.68965
0.68564
0.675877
0.65195
0.606428
0.538233
0.447194
0.337486
0.212885
0.0798899
-0.0561852
-0.188294
-0.31124
-0.418734
-0.507253
-0.572859
-0.615915
-0.637638
-0.645567
-0.64818
-0.663733
-0.729585
-0.675893
-0.917328
-1.98054
2.47196
0.770133
0.660986
0.722093
0.640631
0.631045
0.628296
0.619949
0.598397
0.556573
0.493985
0.410392
0.309908
0.195833
0.0742484
-0.0501758
-0.170912
-0.283401
-0.38176
-0.462928
-0.523021
-0.56246
-0.581865
-0.588406
-0.589755
-0.598371
-0.679229
-0.617804
-0.726735
-2.42799
2.93773
0.523284
0.618355
0.666492
0.574507
0.574639
0.573191
0.56692
0.548067
0.510029
0.452905
0.37636
0.284487
0.180147
0.0690763
-0.044634
-0.154891
-0.257711
-0.347541
-0.421753
-0.47647
-0.512203
-0.528968
-0.533465
-0.533515
-0.532398
-0.623755
-0.575283
-0.480046
-2.89392
3.41046
0.228339
0.595867
0.604061
0.509486
0.520808
0.520491
0.516856
0.500884
0.466641
0.414801
0.344899
0.261056
0.165714
0.0643347
-0.0395213
-0.140122
-0.234004
-0.315882
-0.383536
-0.433055
-0.46507
-0.479014
-0.480911
-0.479836
-0.467518
-0.561443
-0.552895
-0.185253
-3.36682
3.87841
-0.104233
0.596011
0.533236
0.447419
0.469675
0.470339
0.469779
0.456754
0.426255
0.379487
0.315827
0.239463
0.152435
0.0599882
-0.0348029
-0.126503
-0.212129
-0.286601
-0.348096
-0.392622
-0.420969
-0.432027
-0.430887
-0.428842
-0.405582
-0.49073
-0.553128
0.147181
-3.83494
4.33033
-0.462326
0.619103
0.452931
0.390168
0.421123
0.422874
0.425671
0.415573
0.388716
0.34679
0.288972
0.219567
0.140217
0.0560047
-0.0304472
-0.113942
-0.191946
-0.25953
-0.315259
-0.35502
-0.379797
-0.387988
-0.383534
-0.380416
-0.348453
-0.410531
-0.576297
0.505152
-4.28702
4.75601
-0.833115
0.663415
0.362789
0.339436
0.374836
0.37825
0.384471
0.37723
0.353872
0.316543
0.264177
0.20124
0.128975
0.0523552
-0.0264257
-0.102358
-0.173329
-0.234512
-0.284862
-0.320097
-0.341445
-0.34684
-0.339007
-0.334245
-0.297835
-0.320488
-0.620677
0.875835
-4.71284
5.14673
-1.20395
0.72551
0.263318
0.29661
0.330365
0.336638
0.346078
0.34161
0.32157
0.288591
0.241295
0.184365
0.118634
0.0490131
-0.0227124
-0.091673
-0.15616
-0.2114
-0.256749
-0.287705
-0.305802
-0.308482
-0.297477
-0.289878
-0.255117
-0.221112
-0.682833
1.24658
-5.10369
5.49561
-1.56315
0.800711
0.155923
0.262629
0.287203
0.298221
0.310352
0.308604
0.291663
0.262785
0.220188
0.168832
0.109122
0.045954
-0.0192837
-0.0818182
-0.140333
-0.19006
-0.230776
-0.257696
-0.272757
-0.272775
-0.259129
-0.24681
-0.221237
-0.113808
-0.758091
1.60571
-5.45268
5.79773
-1.90064
0.883647
0.0428067
0.237894
0.244867
0.26318
0.27712
0.278105
0.264004
0.238988
0.20073
0.154543
0.100376
0.0431559
-0.016118
-0.0727297
-0.125748
-0.170365
-0.206806
-0.229925
-0.242207
-0.239547
-0.224144
-0.204557
-0.196597
-0.000779139
-0.841082
1.94314
-5.75488
6.05011
-2.20833
0.9688
-0.0732137
0.222236
0.202976
0.231672
0.246186
0.250012
0.238448
0.217069
0.182801
0.141405
0.0923354
0.0405985
-0.0131956
-0.0643492
-0.112315
-0.152198
-0.18471
-0.204249
-0.214052
-0.208605
-0.192678
-0.16274
-0.181028
0.115156
-0.926291
2.25078
-6.00733
6.25161
-2.48035
1.051
-0.188962
0.214943
0.161305
0.203802
0.217344
0.224232
0.214853
0.196909
0.166292
0.129334
0.0849472
0.0382633
-0.0104987
-0.0566231
-0.0999502
-0.135449
-0.164369
-0.18053
-0.188202
-0.179742
-0.164838
-0.121131
-0.173821
0.230822
-1.00855
2.52276
-6.20887
6.40268
-2.71303
1.12579
-0.301181
0.214848
0.11982
0.179605
0.190386
0.200675
0.193082
0.178393
0.151097
0.118253
0.0781611
0.0361331
-0.00801064
-0.0495021
-0.0885761
-0.120015
-0.145671
-0.158629
-0.164567
-0.152752
-0.140661
-0.0796998
-0.173807
0.342962
-1.08341
2.7554
-6.35996
6.50504
-2.90471
1.18972
-0.406802
0.220446
0.078688
0.159028
0.165119
0.179253
0.173002
0.161415
0.137122
0.108088
0.0719311
0.0341923
-0.00571636
-0.0429409
-0.0781216
-0.105802
-0.128511
-0.138417
-0.143062
-0.127443
-0.120093
-0.0386108
-0.179481
0.448506
-1.14742
2.94704
-6.46234
6.56146
-3.05546
1.24042
-0.503168
0.230042
0.038256
0.141918
0.141374
0.159877
0.154485
0.145877
0.124277
0.0987745
0.0662149
0.0324264
-0.00360192
-0.0368977
-0.0685209
-0.0927193
-0.112791
-0.119766
-0.123599
-0.103649
-0.102981
0.00178886
-0.189148
0.544802
-1.19821
3.09777
-6.51877
6.57537
-3.16676
1.2766
-0.588202
0.241904
-0.000988344
0.128023
0.119019
0.142454
0.137411
0.131686
0.112477
0.09025
0.0609735
0.0308222
-0.00165451
-0.0313339
-0.059713
-0.0806853
-0.0984196
-0.102558
-0.106086
-0.0812393
-0.0890775
0.0410112
-0.201077
0.629771
-1.23448
3.20903
-6.53269
6.55067
-3.24108
1.29796
-0.660492
0.254398
-0.0384709
0.117007
0.0979603
0.12688
0.121669
0.118755
0.101644
0.0824575
0.0561708
0.0293673
0.000137747
-0.0262141
-0.0516414
-0.0696222
-0.0853097
-0.0866831
-0.0904224
-0.060121
-0.0780456
0.0784817
-0.213632
0.702003
-1.25595
3.2833
-6.508
6.49147
-3.28156
1.305
-0.719307
0.266096
-0.0735913
0.108464
0.0781445
0.113044
0.107156
0.106999
0.0917081
0.075344
0.0517737
0.0280503
0.00178583
-0.0215055
-0.0442536
-0.0594585
-0.0733787
-0.0720396
-0.0764978
-0.0402434
-0.069482
0.1136
-0.225387
0.760769
-1.2631
3.32374
-6.44882
6.40196
-3.29174
1.29882
-0.764554
0.275858
-0.105782
0.101947
0.0595566
0.100823
0.0937811
0.096339
0.0826008
0.0688604
0.0477515
0.0268606
0.00329996
-0.0171778
-0.0375006
-0.0501278
-0.0625476
-0.0585376
-0.0641904
-0.0215931
-0.0629408
0.145797
-0.235199
0.805975
-1.25704
3.33387
-6.35934
6.28625
-3.27529
1.28092
-0.796684
0.28286
-0.13456
0.0969935
0.0422128
0.0900841
0.0814653
0.0866989
0.074261
0.0629605
0.0440761
0.0257885
0.00468964
-0.0132033
-0.0313368
-0.0415692
-0.0527401
-0.046098
-0.0533687
-0.00418796
-0.0579612
0.174587
-0.242247
0.838075
-1.23926
3.31738
-6.24367
6.1483
-3.23586
1.25301
-0.816576
0.286606
-0.15956
0.0931529
0.0261513
0.0806859
0.0701395
0.0780044
0.0666324
0.0576013
0.0407215
0.0248246
0.00596377
-0.00955627
-0.0257196
-0.0337265
-0.0438827
-0.0346525
-0.0438922
0.0119323
-0.0540953
0.199606
-0.246035
0.857947
-1.21147
3.27791
-6.10578
5.99186
-3.17699
1.21685
-0.825406
0.286897
-0.18056
0.0900123
0.0114219
0.0724821
0.0597453
0.0701835
0.0596634
0.0527425
0.0376638
0.0239604
0.00713066
-0.00621309
-0.0206088
-0.0265485
-0.0359034
-0.0241433
-0.0356154
0.0267165
-0.0509319
0.220628
-0.246364
0.866767
-1.17544
3.219
-5.94941
5.82044
-3.10198
1.17418
-0.824532
0.283786
-0.197484
0.0872143
-0.00192471
0.0653252
0.0502336
0.0631662
0.0533071
0.0483463
0.034881
0.0231878
0.00819815
-0.00315204
-0.0159668
-0.0199885
-0.0287327
-0.0145213
-0.0283911
0.0401126
-0.0481151
0.237575
-0.243289
0.86589
-1.13289
3.14395
-5.77808
5.63729
-3.01389
1.12659
-0.81538
0.277526
-0.210397
0.0844694
-0.0138462
0.0590707
0.0415631
0.056885
0.0475208
0.044377
0.032353
0.0224994
0.00917358
-0.000353155
-0.0117582
-0.0140038
-0.0223028
-0.00574533
-0.0220752
0.0520777
-0.0453572
0.25051
-0.237064
0.856743
-1.08543
3.05583
-5.59502
5.44533
-2.91553
1.07553
-0.799368
0.268503
-0.219484
0.0815617
-0.0243167
0.053581
0.0336983
0.0512744
0.0422659
0.0408011
0.0300613
0.0218881
0.0100639
0.00220192
-0.00794975
-0.008556
-0.0165485
0.00221998
-0.0165301
0.062585
-0.0424433
0.259616
-0.228077
0.84074
-1.03448
2.95744
-5.40316
5.24722
-2.80942
1.02226
-0.777838
0.25719
-0.22503
0.0783485
-0.0333318
0.0487298
0.026608
0.0462719
0.0375071
0.0375873
0.0279889
0.021347
0.0108756
0.00453001
-0.00450993
-0.00360996
-0.0114071
0.00940608
-0.0116291
0.0716301
-0.0392315
0.265176
-0.216801
0.819222
-0.981327
2.85131
-5.20516
5.0453
-2.6978
0.967869
-0.752023
0.244089
-0.227387
0.0747542
-0.0409117
0.044404
0.0202629
0.0418179
0.0332124
0.0347057
0.0261203
0.0208702
0.011615
0.0066466
-0.00140924
0.00086631
-0.00681914
0.0158423
-0.0072592
0.0792329
-0.0356466
0.267539
-0.203742
0.793418
-0.927046
2.73968
-5.00334
4.8416
-2.58265
0.913269
-0.72302
0.229704
-0.226951
0.0707609
-0.0471012
0.0405066
0.0146345
0.0378568
0.0293525
0.0321288
0.0244412
0.0204516
0.0122877
0.00856596
0.00137999
0.00490209
-0.00272875
0.0215574
-0.00332274
0.0854385
-0.031671
0.2671
-0.189404
0.764423
-0.872551
2.62452
-4.79976
4.63786
-2.46566
0.859214
-0.691785
0.214505
-0.224134
0.0663973
-0.0519683
0.0369571
0.00969342
0.0343368
0.0259004
0.0298305
0.0229384
0.0200859
0.0128993
0.0103012
0.00388369
0.00852442
0.000915909
0.0265808
0.000261266
0.0903151
-0.027333
0.264271
-0.174259
0.733189
-0.818599
2.50754
-4.59613
4.43556
-2.3483
0.806314
-0.65913
0.198913
-0.219345
0.0617264
-0.0556004
0.0336916
0.00540873
0.0312106
0.0228308
0.0277868
0.0215998
0.0197679
0.0134548
0.0118644
0.00612598
0.0117585
0.00416225
0.0309439
0.0035572
0.0939508
-0.0226949
0.259461
-0.158728
0.700529
-0.765801
2.39017
-4.39394
4.23587
-2.23176
0.755049
-0.625739
0.183292
-0.212975
0.056833
-0.0581004
0.0306619
0.00174701
0.0284356
0.0201202
0.0259753
0.0204142
0.0194929
0.013959
0.0132668
0.00812931
0.0146279
0.00705305
0.0346802
0.00661374
0.0964491
-0.0178409
0.253058
-0.143175
0.66712
-0.71464
2.27363
-4.19437
4.03977
-2.11701
0.705786
-0.592167
0.167944
-0.205383
0.051814
-0.0595816
0.027834
-0.0013275
0.0259737
0.0177461
0.0243754
0.0193713
0.0192566
0.0144164
0.0145189
0.00991429
0.0171551
0.00962641
0.0378257
0.0094654
0.0979238
-0.0128668
0.245423
-0.127903
0.63352
-0.665483
2.15887
-3.99837
3.84798
-2.00483
0.658787
-0.558863
0.153108
-0.196887
0.0467686
-0.0601628
0.0251862
-0.00385294
0.0237918
0.0156872
0.0229682
0.0184615
0.0190551
0.0148311
0.0156303
0.0114999
0.0193615
0.0119157
0.0404187
0.0121345
0.0984945
-0.00787075
0.236877
-0.113151
0.600175
-0.618593
2.04669
-3.8067
3.66106
-1.89581
0.614229
-0.526177
0.138969
-0.187768
0.041792
-0.0599639
0.0227064
-0.00586943
0.021861
0.0139229
0.0217365
0.0176756
0.0188845
0.0152066
0.0166101
0.0129033
0.0212679
0.0139497
0.0424994
0.0146335
0.0982818
-0.00294694
0.227698
-0.0991016
0.567435
-0.574148
1.93764
-3.61989
3.47938
-1.79036
0.572209
-0.494376
0.125658
-0.178262
0.0369702
-0.0591021
0.0203902
-0.00741833
0.0201571
0.0124332
0.020665
0.0170055
0.0187419
0.0155465
0.0174669
0.0141401
0.0228942
0.015753
0.0441095
0.016967
0.0974033
0.00181985
0.218126
-0.0858856
0.535569
-0.532245
1.83216
-3.43833
3.30319
-1.68876
0.532762
-0.463654
0.113261
-0.168565
0.0323764
-0.0576883
0.0182386
-0.00854164
0.0186593
0.0111989
0.0197397
0.016443
0.0186241
0.0158538
0.0182087
0.0152244
0.0242597
0.0173462
0.0452909
0.0191346
0.0959706
0.00635709
0.208356
-0.0735889
0.504769
-0.492918
1.73052
-3.26226
3.1326
-1.59119
0.495869
-0.434145
0.101829
-0.158834
0.0280701
-0.0558252
0.0162559
-0.00928122
0.0173508
0.0102013
0.0189482
0.0159809
0.0185287
0.0161313
0.0188431
0.0161686
0.0253834
0.0187466
0.0460859
0.0211321
0.094087
0.0106064
0.198549
-0.0622594
0.475172
-0.45615
1.63289
-3.09181
2.96765
-1.4977
0.461468
-0.405931
0.0913791
-0.149195
0.024096
-0.0536057
0.014448
-0.00967797
0.0162173
0.00942239
0.0182796
0.0156121
0.0184535
0.0163812
0.0193772
0.0169838
0.0262831
0.0199682
0.0465352
0.0229538
0.0918456
0.0145236
0.188831
-0.0519131
0.446861
-0.421876
1.53933
-2.92699
2.80827
-1.40829
0.429466
-0.379055
0.0819029
-0.139743
0.0204849
-0.0511119
0.0128211
-0.00977118
0.0152475
0.00884486
0.0177244
0.01533
0.0183965
0.0166057
0.0198177
0.0176797
0.0269765
0.0210226
0.0466784
0.0245938
0.089329
0.0180788
0.179297
-0.0425411
0.41988
-0.390002
1.44984
-2.76775
2.65435
-1.32287
0.399742
-0.353524
0.0733728
-0.130548
0.0172544
-0.0484149
0.0113808
-0.009598
0.014432
0.00845226
0.0172743
0.0151285
0.0183561
0.0168066
0.0201711
0.0182648
0.0274801
0.0219193
0.0465528
0.0260466
0.0866086
0.0212544
0.170018
-0.0341142
0.394238
-0.360406
1.36433
-2.61397
2.50571
-1.24133
0.372158
-0.329323
0.0657457
-0.121659
0.0144111
-0.0455752
0.010131
-0.00919288
0.0137633
0.00822902
0.016922
0.0150018
0.0183311
0.0169854
0.0204432
0.0187464
0.0278095
0.0226659
0.0461927
0.0273082
0.0837452
0.0240446
0.161046
-0.0265885
0.369922
-0.332949
1.28269
-2.46547
2.36215
-1.1635
0.346564
-0.306414
0.0589677
-0.113107
0.0119518
-0.0426432
0.00907394
-0.00858724
0.013235
0.00816054
0.0166614
0.0149445
0.0183203
0.0171434
0.0206397
0.0191308
0.0279795
0.0232688
0.0456299
0.0283766
0.0807892
0.0264527
0.152411
-0.0199089
0.346895
-0.307478
1.20474
-2.32205
2.22341
-1.08919
0.322801
-0.284748
0.0529766
-0.104913
0.00986539
-0.0396598
0.00820993
-0.00780933
0.0128421
0.00823331
0.0164874
0.0149517
0.018323
0.0172816
0.0207658
0.0194233
0.0280037
0.0237332
0.0448925
0.0292515
0.0777819
0.0284901
0.144135
-0.0140128
0.325109
-0.283835
1.13031
-2.18347
2.08925
-1.01818
0.300707
-0.264265
0.0477056
-0.0970837
0.00813469
-0.0366577
0.00753723
-0.00688398
0.0125802
0.00843505
0.0163956
0.0150188
0.0183386
0.0174008
0.020826
0.0196285
0.0278947
0.0240635
0.0440055
0.0299347
0.074756
0.0301738
0.136225
-0.00883279
0.304505
-0.261856
1.05918
-2.04946
1.9594
-0.950264
0.280121
-0.244898
0.0430851
-0.0896194
0.00673803
-0.0336623
0.00705242
-0.00583273
0.0124457
0.00875466
0.0163825
0.0151416
0.0183666
0.0175017
0.0208249
0.01975
0.0276635
0.0242634
0.0429905
0.0304295
0.0717371
0.0315258
0.128681
-0.00429894
0.285017
-0.241378
0.991129
-1.91974
1.83356
-0.885205
0.26088
-0.226578
0.0390447
-0.082515
0.00565069
-0.0306927
0.00675063
-0.00467379
0.0124356
0.00918233
0.0164451
0.0153165
0.0184068
0.0175846
0.0207663
0.0197909
0.0273202
0.0243359
0.0418659
0.0307409
0.0687442
0.0325706
0.121499
-0.000340502
0.266577
-0.222238
0.925935
-1.79404
1.71145
-0.822779
0.242829
-0.209236
0.0355144
-0.0757611
0.00484619
-0.0277625
0.00662596
-0.00342216
0.0125473
0.00970963
0.0165814
0.0155403
0.0184592
0.0176498
0.0206535
0.0197536
0.0268732
0.0242839
0.0406466
0.0308746
0.0657911
0.0333346
0.11467
0.00311264
0.249117
-0.20428
0.863369
-1.67207
1.5928
-0.762761
0.225813
-0.192806
0.0324258
-0.0693463
0.0042974
-0.0248811
0.00667192
-0.00208983
0.0127787
0.0103294
0.0167898
0.0158101
0.0185239
0.0176975
0.0204897
0.0196397
0.02633
0.0241092
0.0393447
0.0308371
0.062887
0.033845
0.108182
0.00612888
0.232569
-0.187349
0.803211
-1.55355
1.47734
-0.704938
0.209687
-0.177224
0.029713
-0.063258
0.0039775
-0.022054
0.00688182
-0.000685954
0.0131284
0.0110359
0.0170692
0.0161238
0.018601
0.0177277
0.0202772
0.0194505
0.0256964
0.0238136
0.0379693
0.0306352
0.0600374
0.0341284
0.102023
0.00877405
0.216872
-0.171299
0.745245
-1.4382
1.36479
-0.649109
0.194311
-0.162435
0.0273135
-0.0574837
0.0038608
-0.0192835
0.00724925
0.000783046
0.0135954
0.0118248
0.0174193
0.0164794
0.0186908
0.0177402
0.0200182
0.0191864
0.0249769
0.0233979
0.0365271
0.030275
0.0572447
0.0342102
0.0961792
0.0111105
0.20197
-0.155992
0.689275
-1.32577
1.25494
-0.595096
0.179558
-0.148391
0.0251688
-0.0520118
0.0039235
-0.0165697
0.00776853
0.0023132
0.0141797
0.0126929
0.0178401
0.0168756
0.0187939
0.017735
0.019714
0.0188476
0.0241748
0.0228625
0.0350219
0.0297622
0.0545088
0.0341141
0.0906398
0.0131965
0.187814
-0.141297
0.63512
-1.21602
1.14755
-0.542749
0.165308
-0.135055
0.0232256
-0.046832
0.00414437
-0.0139104
0.00843512
0.0039029
0.0148817
0.0136385
0.0183324
0.0173117
0.0189106
0.0177116
0.0193658
0.0184335
0.0232919
0.0222067
0.0334554
0.0291012
0.0518273
0.0338611
0.0853942
0.0150853
0.174369
-0.127097
0.582633
-1.10872
1.04246
-0.491956
0.15146
-0.122405
0.0214361
-0.0419366
0.00450532
-0.0113014
0.00924598
0.00555271
0.0157031
0.0146612
0.0188975
0.0177873
0.0190417
0.0176697
0.0189741
0.0179431
0.0223288
0.0214291
0.0318271
0.0282951
0.0491961
0.033469
0.0804345
0.016824
0.161612
-0.11329
0.5317
-1.00372
0.939554
-0.442657
0.137928
-0.110435
0.0197598
-0.0373203
0.00499211
-0.00873722
0.0102001
0.00726531
0.0166464
0.0157619
0.0195371
0.0183026
0.0191879
0.0176087
0.0185389
0.0173745
0.0212847
0.0205271
0.0301342
0.0273446
0.0466095
0.0329516
0.0757552
0.0184529
0.149538
-0.0997916
0.482265
-0.900888
0.838795
-0.394868
0.124655
-0.0991609
0.0181647
-0.0329811
0.00559493
-0.00621068
0.0112985
0.00904539
0.0177154
0.0169426
0.020254
0.0188582
0.01935
0.0175281
0.0180598
0.0167256
0.0201578
0.019497
0.0283722
0.0262486
0.0440602
0.0323186
0.071354
0.0200033
0.138162
-0.0865435
0.434342
-0.800193
0.740264
-0.348701
0.111612
-0.0886236
0.0166286
-0.0289201
0.00630905
-0.00371313
0.0125453
0.0108996
0.0189154
0.0182068
0.0210511
0.0194555
0.0195289
0.0174272
0.0175357
0.0159931
0.0189447
0.0183336
0.0265344
0.025003
0.0415393
0.0315742
0.067232
0.0214968
0.127525
-0.07352
0.388047
-0.701717
0.644212
-0.304411
0.0988165
-0.0788934
0.0151413
-0.0251416
0.0071355
-0.00123414
0.0139473
0.0128366
0.0202532
0.0195592
0.0219326
0.020096
0.0197257
0.0173052
0.0169652
0.0151735
0.0176409
0.0170303
0.0246121
0.0236008
0.0390363
0.030717
0.063393
0.0229429
0.117697
-0.0607381
0.343634
-0.605709
0.551137
-0.26244
0.0863383
-0.0700742
0.0137063
-0.0216525
0.00808148
0.00123829
0.0155144
0.0148669
0.0217368
0.0210054
0.0229029
0.020782
0.0199415
0.017161
0.0163465
0.0142623
0.0162409
0.0155789
0.0225948
0.0220318
0.0365391
0.0297393
0.0598441
0.0243371
0.108784
-0.0482699
0.301546
-0.512671
0.461892
-0.22347
0.0743104
-0.0623016
0.0123401
-0.0184617
0.00915893
0.00371684
0.017258
0.0170009
0.0233742
0.022551
0.0239661
0.0215154
0.0201774
0.0169941
0.0156776
0.0132557
0.0147393
0.0139716
0.0204723
0.0202845
0.0340347
0.0286286
0.0565936
0.0256617
0.100922
-0.0362505
0.262471
-0.423453
0.377753
-0.188424
0.0628819
-0.0557148
0.0110582
-0.0155699
0.0103807
0.00621856
0.0191905
0.0192516
0.0251744
0.024203
0.0251269
0.0222989
0.0204343
0.0168037
0.0149563
0.0121492
0.0131293
0.0121995
0.0182313
0.0183466
0.0315059
0.0273717
0.053642
0.0269004
0.0942486
-0.024831
0.227332
-0.339334
0.300515
-0.158647
0.0521497
-0.0504515
0.00987217
-0.0129525
0.0117846
0.00879438
0.0213575
0.0216653
0.0271755
0.025993
0.026408
0.0231467
0.020717
0.0165858
0.014169
0.0109206
0.0113796
0.0102249
0.0158257
0.0161718
0.0289012
0.0259298
0.0509635
0.0280398
0.0889025
-0.0141109
0.197479
-0.262107
0.234336
-0.137569
0.042816
-0.0469894
0.00898746
-0.0106357
0.0135264
0.0115321
0.023899
0.0243431
0.0294851
0.0279961
0.0278729
0.0240926
0.0210408
0.0163273
0.0132841
0.00950864
0.00941688
0.00794076
0.0131549
0.0136198
0.0261317
0.0241445
0.0485825
0.0288699
0.0853604
-0.00479905
0.176348
-0.195933
0.191559
-0.134603
0.0398496
-0.0475078
0.00966938
-0.00923288
0.0158965
0.014146
0.0268084
0.0270806
0.0320178
0.0300664
0.0294514
0.0250641
0.0213977
0.0160346
0.0123726
0.00798157
0.00738633
0.00543184
0.0104241
0.0106968
0.0234865
0.0217238
0.0471191
0.0281181
0.0858146
-0.00188179
0.173366
-0.15316
-2.65494e-05
-0.0847251
-0.0203835
0.323995
0.749876
1.11369
1.42165
1.6943
1.91194
2.02652
1.99267
1.78722
1.41647
0.910922
0.31898
-0.302043
-0.891317
-1.39214
-1.75711
-1.95691
-1.98621
-1.86873
-1.64983
-1.37703
-1.06929
-0.705505
-0.279396
0.0651843
0.129556
0.0448312
-0.015784
-0.0943932
0.0501922
0.44661
0.852031
1.1708
1.43718
1.66916
1.84439
1.9206
1.86187
1.65222
1.29993
0.832441
0.291546
-0.273996
-0.812486
-1.27568
-1.62264
-1.82693
-1.88116
-1.80187
-1.62506
-1.39267
-1.1264
-0.807684
-0.402071
-0.00542846
0.139215
0.0605867
-0.0357814
-0.0884046
0.141887
0.566456
0.934581
1.20757
1.43539
1.62932
1.7661
1.8096
1.73187
1.52219
1.18979
0.759064
0.26602
-0.247901
-0.738761
-1.16556
-1.49303
-1.69763
-1.77096
-1.72426
-1.58565
-1.39104
-1.16319
-0.890252
-0.521971
-0.0971656
0.133215
0.0805819
-0.0586315
-0.0624011
0.248997
0.676969
0.998584
1.22905
1.42231
1.58241
1.68667
1.70428
1.61324
1.40639
1.09317
0.695246
0.243906
-0.225298
-0.674635
-1.06893
-1.37755
-1.5796
-1.66634
-1.64546
-1.53917
-1.37817
-1.18472
-0.954273
-0.632532
-0.204321
0.107198
0.10343
-0.0821073
-0.0127171
0.368577
0.77695
1.04692
1.2382
1.39974
1.52926
1.60553
1.60225
1.50196
1.29996
1.00549
0.637769
0.224058
-0.205009
-0.616868
-0.981219
-1.27138
-1.46883
-1.56494
-1.56493
-1.48647
-1.35584
-1.19396
-1.00263
-0.732557
-0.323947
0.0574982
0.126905
-0.10241
0.0630662
0.49489
0.863045
1.08032
1.23625
1.36863
1.47066
1.52295
1.50289
1.39654
1.20089
0.924792
0.58522
0.205971
-0.18651
-0.56404
-0.900475
-1.17254
-1.36386
-1.46616
-1.48292
-1.42832
-1.325
-1.19212
-1.03608
-0.818696
-0.450309
-0.0183042
0.147209
-0.114337
0.165289
0.620639
0.932019
1.09929
1.224
1.32987
1.40767
1.43984
1.40667
1.29696
1.10881
0.850556
0.537174
0.189487
-0.169633
-0.515719
-0.826167
-1.08062
-1.26465
-1.37046
-1.40034
-1.36578
-1.28654
-1.18001
-1.0551
-0.887719
-0.576112
-0.120551
0.159135
-0.111535
0.291689
0.738124
0.982071
1.10493
1.20239
1.28449
1.34141
1.35706
1.31402
1.20317
1.02335
0.782317
0.493263
0.174468
-0.154238
-0.471534
-0.757835
-0.995287
-1.17119
-1.27827
-1.31807
-1.29996
-1.24147
-1.15858
-1.06082
-0.937826
-0.693655
-0.246982
0.156332
-0.0868457
0.437245
0.840035
1.01291
1.09869
1.17242
1.23354
1.2729
1.27532
1.2252
1.11502
0.944092
0.719574
0.453103
0.160774
-0.140177
-0.431099
-0.69498
-0.916108
-1.08331
-1.18985
-1.23679
-1.23188
-1.19085
-1.12881
-1.05468
-0.968726
-0.795632
-0.392578
0.131639
-0.0327676
0.594288
0.920162
1.02556
1.0821
1.13506
1.1781
1.20308
1.19521
1.14037
1.0323
0.870598
0.661858
0.41634
0.148276
-0.127319
-0.394058
-0.637131
-0.842658
-1.0008
-1.10537
-1.15708
-1.16246
-1.13574
-1.09166
-1.03821
-0.981459
-0.875833
-0.549672
0.0775517
0.0579783
0.752881
0.974035
1.02214
1.05657
1.09126
1.11923
1.13278
1.11718
1.05961
0.954792
0.80247
0.608745
0.382661
0.13686
-0.115547
-0.360096
-0.583866
-0.774541
-0.923465
-1.02491
-1.07943
-1.09254
-1.07718
-1.04809
-1.01282
-0.978131
-0.929792
-0.708331
-0.0132109
0.191835
0.901469
0.999407
1.00546
1.02333
1.04199
1.05792
1.06273
1.04163
0.982968
0.882256
0.739334
0.559849
0.351785
0.126424
-0.104757
-0.328933
-0.534802
-0.711384
-0.851058
-0.948517
-1.00422
-1.02284
-1.01619
-0.999063
-0.979742
-0.961553
-0.95526
-0.856999
-0.147094
0.373803
1.02772
0.99651
0.978611
0.983353
0.988263
0.995152
0.993557
0.96885
0.910422
0.814459
0.680839
0.514823
0.32346
0.116879
-0.0948578
-0.300315
-0.489591
-0.652841
-0.783352
-0.876183
-0.931726
-0.953992
-0.953721
-0.945571
-0.939932
-0.934823
-0.95247
-0.983347
-0.329103
0.606911
1.11951
0.968061
0.944561
0.937389
0.931109
0.931779
0.92578
0.899054
0.841926
0.751161
0.626658
0.473347
0.297461
0.108142
-0.0857668
-0.274016
-0.447915
-0.598585
-0.720111
-0.807859
-0.862184
-0.886507
-0.890631
-0.888653
-0.894143
-0.9009
-0.924138
-1.07526
-0.562268
0.891808
1.16595
0.918998
0.905752
0.88605
0.871612
0.868568
0.859824
0.832398
0.777398
0.692126
0.576483
0.435132
0.273584
0.100143
-0.0774108
-0.249833
-0.409486
-0.548312
-0.6611
-0.743467
-0.795747
-0.820814
-0.827683
-0.829385
-0.842983
-0.862225
-0.875198
-1.12183
-0.84724
1.22654
1.1583
0.855983
0.863837
0.82992
0.81086
0.806161
0.796033
0.76898
0.716734
0.637119
0.53003
0.399916
0.251645
0.0928142
-0.0697241
-0.227583
-0.374043
-0.501741
-0.606091
-0.682907
-0.732516
-0.757256
-0.765518
-0.768851
-0.78703
-0.820448
-0.812311
-1.11432
-1.18207
1.60652
1.09075
0.786735
0.819536
0.76968
0.749907
0.745076
0.734673
0.708852
0.659812
0.585915
0.487034
0.367458
0.23148
0.0860987
-0.062648
-0.2071
-0.341346
-0.458608
-0.554857
-0.626057
-0.672542
-0.696103
-0.704655
-0.708105
-0.726963
-0.776285
-0.743191
-1.04692
-1.56216
2.02471
0.960942
0.719255
0.77264
0.706218
0.68972
0.685713
0.675952
0.652023
0.606495
0.538293
0.447249
0.337538
0.212937
0.0799431
-0.0561298
-0.188236
-0.311179
-0.418668
-0.507183
-0.572785
-0.615839
-0.637562
-0.645494
-0.64811
-0.663667
-0.729523
-0.675835
-0.917273
-1.98048
2.47201
0.770187
0.661046
0.722153
0.640698
0.631116
0.62837
0.620023
0.598469
0.556638
0.494043
0.410445
0.309958
0.195883
0.0742998
-0.050122
-0.170855
-0.283341
-0.381695
-0.46286
-0.522948
-0.562385
-0.581789
-0.588332
-0.589685
-0.598305
-0.679167
-0.617745
-0.72668
-2.42793
2.93778
0.52334
0.618416
0.666554
0.574576
0.574711
0.573265
0.566994
0.548137
0.510092
0.45296
0.37641
0.284535
0.180195
0.0691259
-0.0445819
-0.154836
-0.257653
-0.347478
-0.421686
-0.476399
-0.512129
-0.528893
-0.533391
-0.533444
-0.532331
-0.623692
-0.575224
-0.47999
-2.89387
3.41051
0.228397
0.595929
0.604124
0.509556
0.520881
0.520565
0.516929
0.500951
0.466701
0.414853
0.344947
0.261102
0.16576
0.0643824
-0.0394709
-0.140068
-0.233947
-0.315821
-0.383471
-0.432985
-0.464996
-0.478939
-0.480837
-0.479765
-0.46745
-0.561379
-0.552835
-0.185196
-3.36676
3.87847
-0.104173
0.596074
0.533301
0.44749
0.469748
0.470413
0.469851
0.456819
0.426312
0.379537
0.315871
0.239506
0.152479
0.060034
-0.0347543
-0.126451
-0.212074
-0.286542
-0.348032
-0.392553
-0.420896
-0.431952
-0.430813
-0.42877
-0.405514
-0.490665
-0.553067
0.147239
-3.83489
4.33039
-0.462264
0.619167
0.452998
0.39024
0.421196