/*--------------------------------*- C++ -*----------------------------------*\
| =========                 |                                                 |
| \\      /  F ield         | OpenFOAM: The Open Source CFD Toolbox           |
|  \\    /   O peration     | Version:  2.4.0                                 |
|   \\  /    A nd           | Web:      www.OpenFOAM.org                      |
|    \\/     M anipulation  |                                                 |
\*---------------------------------------------------------------------------*/
FoamFile
{
    version     2.0;
    format      ascii;
    class       surfaceScalarField;
    location    "0.05";
    object      phi;
}
// * * * * * * * * * * * * * * * * * * * * * * * * * * * * * * * * * * * * * //

dimensions      [0 3 -1 0 0 0 0];

internalField   nonuniform List<scalar> 
14230
(
5.13403e-16
-1.93954e-16
-1.96404e-15
2.47744e-15
-1.362e-14
1.16559e-14
-2.69609e-14
1.3341e-14
-2.4997e-14
-1.9639e-15
1.38453e-14
-3.88423e-14
1.13498e-13
-9.96526e-14
2.95841e-13
-1.82344e-13
5.71763e-13
-2.75922e-13
9.3113e-13
-3.59368e-13
1.3397e-12
-4.08573e-13
1.74506e-12
-4.0536e-13
2.08856e-12
-3.435e-13
2.31798e-12
-2.29421e-13
2.39791e-12
-7.993e-14
2.316e-12
8.19088e-14
2.08513e-12
2.30877e-13
1.74102e-12
3.44104e-13
1.33594e-12
4.05087e-13
9.28256e-13
4.0768e-13
5.69991e-13
3.58265e-13
2.95003e-13
2.74988e-13
1.1323e-13
1.81774e-13
1.38061e-14
9.94234e-14
-2.49961e-14
3.88022e-14
-2.69678e-14
1.97171e-15
-1.36262e-14
-1.33416e-14
-1.96471e-15
-1.16615e-14
5.13719e-16
-2.47842e-15
1.93951e-16
3.19767e-16
-1.51015e-16
7.5291e-16
-1.03961e-14
1.27226e-14
-3.59435e-14
3.72034e-14
-5.32914e-14
3.06889e-14
-1.05668e-14
-4.46886e-14
1.57865e-13
-2.07274e-13
5.14499e-13
-4.56287e-13
1.10552e-12
-7.73369e-13
1.94083e-12
-1.11123e-12
2.97568e-12
-1.39421e-12
4.11001e-12
-1.5429e-12
5.20663e-12
-1.50198e-12
6.11972e-12
-1.25659e-12
6.72304e-12
-8.32747e-13
6.9322e-12
-2.89088e-13
6.71797e-12
2.96141e-13
6.1108e-12
8.38045e-13
5.19591e-12
1.25899e-12
4.09969e-12
1.50131e-12
2.96742e-12
1.53995e-12
1.93537e-12
1.39032e-12
1.10263e-12
1.10773e-12
5.13354e-13
7.71046e-13
1.57576e-13
4.55202e-13
-1.05979e-14
2.06976e-13
-5.32972e-14
4.4671e-14
-3.59522e-14
-3.06865e-14
-1.03989e-14
-3.72149e-14
-1.50777e-16
-1.27265e-14
-7.52639e-16
7.95813e-16
-2.72784e-15
4.21299e-15
-2.44242e-14
3.44189e-14
-6.27369e-14
7.55162e-14
-6.44706e-14
3.24225e-14
6.36974e-14
-1.72857e-13
4.22328e-13
-5.65904e-13
1.09664e-12
-1.1306e-12
2.13879e-12
-1.81552e-12
3.5397e-12
-2.51214e-12
5.21049e-12
-3.065e-12
6.99014e-12
-3.32256e-12
8.67509e-12
-3.18693e-12
1.0058e-11
-2.63949e-12
1.09636e-11
-1.73836e-12
1.12763e-11
-6.01746e-13
1.09561e-11
6.16259e-13
1.00447e-11
1.74945e-12
8.65887e-12
2.64485e-12
6.97409e-12
3.1861e-12
5.19713e-12
3.31691e-12
3.53036e-12
3.05709e-12
2.13343e-12
2.50465e-12
1.09425e-12
1.81023e-12
4.21577e-13
1.12788e-12
6.3563e-14
5.6499e-13
-6.44844e-14
1.72718e-13
-6.27472e-14
-3.24238e-14
-2.44288e-14
-7.55332e-14
-2.72759e-15
-3.44277e-14
-4.21259e-15
7.3236e-16
-8.45304e-15
1.22947e-14
-4.44976e-14
7.04635e-14
-8.61407e-14
1.17159e-13
-4.03084e-14
-1.34097e-14
2.23976e-13
-4.37141e-13
8.30063e-13
-1.17199e-12
1.87223e-12
-2.17277e-12
3.39312e-12
-3.33641e-12
5.35187e-12
-4.47089e-12
7.61193e-12
-5.32506e-12
9.95943e-12
-5.67005e-12
1.21413e-11
-5.36884e-12
1.39093e-11
-4.40747e-12
1.50579e-11
-2.88694e-12
1.5453e-11
-9.96826e-13
1.50486e-11
1.0206e-12
1.38927e-11
2.90537e-12
1.21207e-11
4.41689e-12
9.93847e-12
5.36832e-12
7.59388e-12
5.6615e-12
5.33863e-12
5.31234e-12
3.38501e-12
4.45828e-12
1.86824e-12
3.32699e-12
8.28613e-13
2.16751e-12
2.23636e-13
1.16997e-12
-4.0353e-14
4.36707e-13
-8.61532e-14
1.33765e-14
-4.45045e-14
-1.17182e-13
-8.45347e-15
-7.04788e-14
-1.22949e-14
-3.71172e-16
-1.85061e-14
2.73032e-14
-6.85204e-14
1.20478e-13
-9.54847e-14
1.44124e-13
3.75977e-14
-1.46492e-13
4.90439e-13
-8.89983e-13
1.39676e-12
-2.07832e-12
2.84724e-12
-3.62325e-12
4.86205e-12
-5.35122e-12
7.36043e-12
-6.96927e-12
1.01592e-11
-8.1238e-12
1.30012e-11
-8.51209e-12
1.55991e-11
-7.96675e-12
1.76799e-11
-6.48821e-12
1.90218e-11
-4.22889e-12
1.94819e-11
-1.45689e-12
1.90113e-11
1.49121e-12
1.76608e-11
4.25587e-12
1.5575e-11
6.50266e-12
1.29762e-11
7.96715e-12
1.01369e-11
8.50076e-12
7.34339e-12
8.10585e-12
4.85099e-12
6.95067e-12
2.84136e-12
5.33662e-12
1.39436e-12
3.61451e-12
4.89757e-13
2.07457e-12
3.74817e-14
8.88983e-13
-9.55037e-14
1.46362e-13
-6.85294e-14
-1.44156e-13
-1.85075e-14
-1.20501e-13
-2.73048e-14
-3.49753e-15
-3.34878e-14
5.10532e-14
-9.20441e-14
1.79034e-13
-7.75282e-14
1.29608e-13
1.88455e-13
-4.12475e-13
8.82164e-13
-1.58369e-12
2.13585e-12
-3.332e-12
4.02525e-12
-5.51265e-12
6.53801e-12
-7.86398e-12
9.54962e-12
-9.98088e-12
1.28344e-11
-1.14086e-11
1.61023e-11
-1.178e-11
1.90444e-11
-1.09089e-11
2.13759e-11
-8.81973e-12
2.28696e-11
-5.72256e-12
2.33801e-11
-1.9674e-12
2.28582e-11
2.01317e-12
2.13551e-11
5.75897e-12
1.90176e-11
8.84007e-12
1.60739e-11
1.09109e-11
1.28084e-11
1.17662e-11
9.52898e-12
1.13853e-11
6.52392e-12
9.95573e-12
4.01723e-12
7.8433e-12
2.13224e-12
5.49951e-12
8.8098e-13
3.32583e-12
1.88205e-13
1.58176e-12
-7.75653e-14
4.12132e-13
-9.20556e-14
-1.29666e-13
-3.34904e-14
-1.79066e-13
-5.10575e-14
-9.73774e-15
-5.28581e-14
8.38971e-14
-1.07704e-13
2.3388e-13
-1.63055e-14
3.82089e-14
4.32151e-13
-8.60932e-13
1.41692e-12
-2.56846e-12
3.05827e-12
-4.97335e-12
5.40732e-12
-7.8617e-12
8.41216e-12
-1.08688e-11
1.19043e-11
-1.3473e-11
1.56218e-11
-1.51261e-11
1.92517e-11
-1.54098e-11
2.24746e-11
-1.41318e-11
2.50037e-11
-1.13489e-11
2.6614e-11
-7.33287e-12
2.71629e-11
-2.51626e-12
2.66021e-11
2.57401e-12
2.49817e-11
7.37933e-12
2.24459e-11
1.13758e-11
1.92207e-11
1.41362e-11
1.55927e-11
1.53942e-11
1.18803e-11
1.50977e-11
8.39504e-12
1.3441e-11
5.39698e-12
1.08414e-11
3.05321e-12
7.84327e-12
1.41506e-12
4.96398e-12
4.31683e-13
2.56513e-12
-1.63821e-14
8.60198e-13
-1.0772e-13
-3.83278e-14
-5.2862e-14
-2.33924e-13
-8.39054e-14
-2.00142e-14
-7.42965e-14
1.23516e-13
-1.04852e-13
2.64436e-13
1.0659e-13
-1.73233e-13
7.8882e-13
-1.54316e-12
2.11097e-12
-3.89062e-12
4.1726e-12
-7.03498e-12
6.99232e-12
-1.06814e-11
1.04747e-11
-1.43512e-11
1.441e-11
-1.74083e-11
1.85074e-11
-1.92235e-11
2.24403e-11
-1.93427e-11
2.5888e-11
-1.75795e-11
2.85692e-11
-1.40301e-11
3.02666e-11
-9.03028e-12
3.08437e-11
-3.09333e-12
3.02544e-11
3.16331e-12
2.85465e-11
9.08719e-12
2.58581e-11
1.40642e-11
2.24074e-11
1.75868e-11
1.84758e-11
1.93259e-11
1.43831e-11
1.91904e-11
1.04547e-11
1.73694e-11
6.97952e-12
1.43165e-11
4.16587e-12
1.06569e-11
2.10824e-12
7.02162e-12
7.88028e-13
3.88534e-12
1.06439e-13
1.54179e-12
-1.04877e-13
1.72989e-13
-7.43018e-14
-2.64499e-13
-1.2353e-13
-3.46776e-14
-9.30335e-14
1.63566e-13
-6.93856e-14
2.40788e-13
3.11452e-13
-5.5407e-13
1.2782e-12
-2.50991e-12
2.97872e-12
-5.59114e-12
5.48498e-12
-9.54123e-12
8.77716e-12
-1.39736e-11
1.27153e-11
-1.82893e-11
1.7053e-11
-2.17461e-11
2.14788e-11
-2.36493e-11
2.56607e-11
-2.35246e-11
2.92837e-11
-2.12025e-11
3.20779e-11
-1.68243e-11
3.38376e-11
-1.07899e-11
3.44344e-11
-3.69015e-12
3.38253e-11
3.77238e-12
3.20551e-11
1.08574e-11
2.92533e-11
1.6866e-11
2.56265e-11
2.12136e-11
2.14452e-11
2.35073e-11
1.70235e-11
2.3612e-11
1.26924e-11
2.17005e-11
8.76186e-12
1.82471e-11
5.47641e-12
1.39424e-11
2.97492e-12
9.52311e-12
1.27696e-12
5.58329e-12
3.11179e-13
2.50757e-12
-6.94292e-14
5.53596e-13
-9.30406e-14
-2.40888e-13
-1.63586e-13
-5.29838e-14
-1.01231e-13
1.92313e-13
1.61866e-14
1.23371e-13
6.19799e-13
-1.15768e-12
1.9191e-12
-3.80921e-12
4.03251e-12
-7.70455e-12
6.99924e-12
-1.2508e-11
1.07571e-11
-1.77315e-11
1.51231e-11
-2.26553e-11
1.98206e-11
-2.64437e-11
2.45252e-11
-2.83538e-11
2.89066e-11
-2.7906e-11
3.26616e-11
-2.49575e-11
3.55353e-11
-1.9698e-11
3.73362e-11
-1.25907e-11
3.79457e-11
-4.29964e-12
3.73241e-11
4.39392e-12
3.55127e-11
1.26689e-11
3.2631e-11
1.97477e-11
2.88718e-11
2.49728e-11
2.449e-11
2.7889e-11
1.9789e-11
2.83131e-11
1.50977e-11
2.63918e-11
1.07393e-11
2.26054e-11
6.98869e-12
1.7693e-11
4.02745e-12
1.24843e-11
1.91727e-12
7.69347e-12
6.19339e-13
3.8055e-12
1.61081e-14
1.15683e-12
-1.01241e-13
-1.23539e-13
-1.92344e-13
-7.24834e-14
-8.74796e-14
1.91418e-13
1.72435e-13
-1.36543e-13
1.05365e-12
-2.0389e-12
2.72892e-12
-5.48448e-12
5.28248e-12
-1.02581e-11
8.71703e-12
-1.59425e-11
1.2926e-11
-2.19405e-11
1.76872e-11
-2.74164e-11
2.27009e-11
-3.14574e-11
2.76369e-11
-3.32898e-11
3.21731e-11
-3.24422e-11
3.60219e-11
-2.88062e-11
3.89464e-11
-2.26225e-11
4.07707e-11
-1.4415e-11
4.13869e-11
-4.91586e-12
4.0759e-11
5.02185e-12
3.89242e-11
1.45036e-11
3.59916e-11
2.26802e-11
3.21381e-11
2.88264e-11
2.76008e-11
3.24262e-11
2.26676e-11
3.32463e-11
1.76596e-11
3.13999e-11
1.29059e-11
2.73591e-11
8.7044e-12
2.18945e-11
5.276e-12
1.59128e-11
2.72635e-12
1.02431e-11
1.05293e-12
5.47893e-12
1.72297e-13
2.03746e-12
-8.74959e-14
1.36254e-13
-1.91465e-13
-8.83744e-14
-3.64899e-14
1.35031e-13
4.22466e-13
-5.95499e-13
1.63481e-12
-3.25124e-12
3.72333e-12
-7.57301e-12
6.73656e-12
-1.32713e-11
1.0638e-11
-1.98439e-11
1.52768e-11
-2.65794e-11
2.0397e-11
-3.25366e-11
2.56831e-11
-3.67435e-11
3.08058e-11
-3.84125e-11
3.54561e-11
-3.70925e-11
3.93652e-11
-3.27153e-11
4.23158e-11
-2.55732e-11
4.41486e-11
-1.62478e-11
4.47666e-11
-5.53382e-12
4.41374e-11
5.65106e-12
4.22944e-11
1.63466e-11
3.93356e-11
2.5639e-11
3.54213e-11
3.27407e-11
3.07693e-11
3.70783e-11
2.56484e-11
3.83672e-11
2.03674e-11
3.66809e-11
1.52544e-11
3.24721e-11
1.06232e-11
2.65256e-11
6.72852e-12
1.98075e-11
3.71987e-12
1.32518e-11
1.63372e-12
7.56509e-12
4.22234e-13
3.24894e-12
-3.65178e-14
5.95006e-13
-1.35106e-13
-9.28768e-14
7.09799e-14
-1.0648e-14
7.9118e-13
-1.3157e-12
2.38412e-12
-4.84418e-12
4.91596e-12
-1.01049e-11
8.40044e-12
-1.67558e-11
1.27599e-11
-2.42034e-11
1.78015e-11
-3.1621e-11
2.32418e-11
-3.79769e-11
2.8757e-11
-4.22587e-11
3.40246e-11
-4.36801e-11
3.87524e-11
-4.18203e-11
4.26924e-11
-3.66554e-11
4.5648e-11
-2.85288e-11
4.74766e-11
-1.80765e-11
4.80921e-11
-6.14936e-12
4.74659e-11
6.27725e-12
4.56275e-11
1.8185e-11
4.26639e-11
2.86026e-11
3.87183e-11
3.66863e-11
3.39881e-11
4.18084e-11
2.87216e-11
4.36337e-11
2.32107e-11
4.21918e-11
1.7777e-11
3.79058e-11
1.27431e-11
3.15595e-11
8.39074e-12
2.41598e-11
4.91147e-12
1.6731e-11
2.38256e-12
1.0094e-11
7.90809e-13
4.84069e-12
7.09314e-14
1.31488e-12
1.05241e-14
-7.46992e-14
2.57912e-13
-2.87224e-13
1.30438e-12
-2.36217e-12
3.32091e-12
-6.8607e-12
6.31828e-12
-1.31022e-11
1.02776e-11
-2.07152e-11
1.50789e-11
-2.90047e-11
2.04914e-11
-3.70335e-11
2.62116e-11
-4.36971e-11
3.19138e-11
-4.79608e-11
3.72872e-11
-4.90535e-11
4.20593e-11
-4.65924e-11
4.60046e-11
-4.06006e-11
4.8947e-11
-3.14712e-11
5.07607e-11
-1.98902e-11
5.13703e-11
-6.75895e-12
5.07507e-11
6.89684e-12
4.89277e-11
2.00081e-11
4.59773e-11
3.1553e-11
4.20263e-11
4.06373e-11
3.72512e-11
4.65836e-11
3.1878e-11
4.90069e-11
2.61793e-11
4.78905e-11
2.04651e-11
4.36199e-11
1.50602e-11
3.69645e-11
1.02662e-11
2.89538e-11
6.31263e-12
2.06846e-11
3.31877e-12
1.30879e-11
1.30382e-12
6.85564e-12
2.5783e-13
2.36087e-12
2.87017e-13
-1.86633e-14
5.5053e-13
-7.43305e-13
1.9878e-12
-3.79944e-12
4.46248e-12
-9.33538e-12
7.9395e-12
-1.65792e-11
1.23695e-11
-2.51452e-11
1.759e-11
-3.42251e-11
2.33377e-11
-4.27812e-11
2.92967e-11
-4.96561e-11
3.51451e-11
-5.38093e-11
4.05882e-11
-5.44966e-11
4.53751e-11
-5.13793e-11
4.9303e-11
-4.45284e-11
5.22166e-11
-3.43848e-11
5.40064e-11
-2.16799e-11
5.46071e-11
-7.35964e-12
5.39971e-11
7.50681e-12
5.21986e-11
2.18066e-11
4.92772e-11
3.44743e-11
4.53434e-11
4.45711e-11
4.0553e-11
5.1374e-11
3.51094e-11
5.44506e-11
2.92635e-11
5.37364e-11
2.33099e-11
4.95735e-11
1.75693e-11
4.27051e-11
1.23563e-11
3.41668e-11
7.93257e-12
2.51084e-11
4.45965e-12
1.65608e-11
1.98698e-12
9.32831e-12
5.50395e-13
3.79745e-12
7.42963e-13
9.44492e-14
9.77528e-13
-1.43304e-12
2.86615e-12
-5.68807e-12
5.82375e-12
-1.2293e-11
9.78652e-12
-2.0542e-11
1.46756e-11
-3.00342e-11
2.02866e-11
-3.98362e-11
2.63312e-11
-4.88258e-11
3.24877e-11
-5.58126e-11
3.84436e-11
-5.97652e-11
4.3923e-11
-5.9976e-11
4.86981e-11
-5.61544e-11
5.25889e-11
-4.84192e-11
5.54604e-11
-3.72564e-11
5.72185e-11
-2.34381e-11
5.78078e-11
-7.94895e-12
5.721e-11
8.10462e-12
5.54437e-11
2.35729e-11
5.25648e-11
3.73532e-11
4.8668e-11
4.84678e-11
4.3889e-11
5.6153e-11
3.84083e-11
5.99313e-11
3.24541e-11
5.96907e-11
2.63022e-11
5.57254e-11
2.02643e-11
4.8743e-11
1.46607e-11
3.97704e-11
9.77824e-12
2.99908e-11
5.82012e-12
2.05189e-11
2.86499e-12
1.22834e-11
9.77314e-13
5.68513e-12
1.43249e-12
2.87791e-13
1.56907e-12
-2.41406e-12
3.9622e-12
-8.08119e-12
7.41706e-12
-1.57478e-11
1.1864e-11
-2.4989e-11
1.71934e-11
-3.53636e-11
2.31616e-11
-4.58043e-11
2.94627e-11
-5.51269e-11
3.5776e-11
-6.21259e-11
4.18026e-11
-6.57919e-11
4.72877e-11
-6.54611e-11
5.20271e-11
-6.08938e-11
5.58636e-11
-5.22557e-11
5.86815e-11
-4.00742e-11
6.04014e-11
-2.5158e-11
6.09773e-11
-8.52477e-12
6.03937e-11
8.68816e-12
5.86663e-11
2.53003e-11
5.58414e-11
4.01781e-11
5.1999e-11
5.23103e-11
4.72552e-11
6.08967e-11
4.17682e-11
6.54184e-11
3.57424e-11
6.57165e-11
2.94328e-11
6.2035e-11
2.31378e-11
5.5038e-11
1.71769e-11
4.57313e-11
1.18543e-11
3.53134e-11
7.41252e-12
2.49607e-11
3.96063e-12
1.57353e-11
1.56875e-12
8.07701e-12
2.41319e-12
5.88054e-13
2.35568e-12
-3.74494e-12
5.29605e-12
-1.10216e-11
9.25209e-12
-1.97039e-11
1.41745e-11
-2.99114e-11
1.9919e-11
-4.11081e-11
2.62068e-11
-5.20922e-11
3.27232e-11
-6.16433e-11
3.91536e-11
-6.85562e-11
4.52162e-11
-7.18545e-11
5.0679e-11
-7.09238e-11
5.53615e-11
-6.55763e-11
5.91285e-11
-5.60227e-11
6.18829e-11
-4.28286e-11
6.35592e-11
-2.68343e-11
6.41198e-11
-9.08536e-12
6.35523e-11
9.25565e-12
6.18692e-11
2.69834e-11
5.91082e-11
4.2939e-11
5.53354e-11
5.60831e-11
5.06482e-11
6.55838e-11
4.51829e-11
7.08837e-11
3.91203e-11
7.17791e-11
3.26928e-11
6.84625e-11
2.61818e-11
6.1549e-11
1.99009e-11
5.20122e-11
1.41634e-11
4.10509e-11
9.24656e-12
2.98775e-11
5.29399e-12
1.96879e-11
2.35521e-12
1.10158e-11
3.74361e-12
1.02479e-12
3.36697e-12
-5.4824e-12
6.88458e-12
-1.45392e-11
1.13359e-11
-2.41552e-11
1.67183e-11
-3.52938e-11
2.28467e-11
-4.72365e-11
2.94138e-11
-5.86593e-11
3.61038e-11
-6.83332e-11
4.26128e-11
-7.50653e-11
4.8679e-11
-7.79206e-11
5.40938e-11
-7.63387e-11
5.87006e-11
-7.01831e-11
6.2385e-11
-5.97071e-11
6.50674e-11
-4.5511e-11
6.66953e-11
-2.84622e-11
6.72392e-11
-9.62923e-12
6.66892e-11
9.80559e-12
6.50552e-11
2.86175e-11
6.23667e-11
4.56275e-11
5.86766e-11
5.97732e-11
5.40651e-11
7.01953e-11
4.86471e-11
7.63017e-11
4.25802e-11
7.7846e-11
3.60732e-11
7.49695e-11
2.93879e-11
6.82343e-11
2.28272e-11
5.85728e-11
1.67058e-11
4.71723e-11
1.13293e-11
3.5254e-11
6.88196e-12
2.41353e-11
3.36633e-12
1.45314e-11
5.48041e-12
1.62952e-12
4.63056e-12
-7.67839e-12
8.7411e-12
-1.86497e-11
1.3673e-11
-2.90871e-11
1.94939e-11
-4.11146e-11
2.59698e-11
-5.37125e-11
3.27737e-11
-6.54633e-11
3.95959e-11
-7.51554e-11
4.61467e-11
-8.16161e-11
5.21862e-11
-8.39601e-11
5.75299e-11
-8.16824e-11
6.2044e-11
-7.46972e-11
6.56342e-11
-6.32973e-11
6.82374e-11
-4.81142e-11
6.9813e-11
-3.00379e-11
7.03389e-11
-1.01551e-11
6.98078e-11
1.03367e-11
6.82267e-11
3.01985e-11
6.5618e-11
4.82362e-11
6.20223e-11
6.3369e-11
5.75033e-11
7.47143e-11
5.2156e-11
8.16489e-11
4.61151e-11
8.3887e-11
3.95654e-11
8.15192e-11
3.27471e-11
7.50527e-11
2.59491e-11
6.53708e-11
1.948e-11
5.36414e-11
1.36654e-11
4.10686e-11
8.73785e-12
2.90628e-11
4.62969e-12
1.86396e-11
7.67553e-12
2.43457e-12
6.17098e-12
-1.03774e-11
1.08752e-11
-2.3354e-11
1.62658e-11
-3.44777e-11
2.24978e-11
-4.73466e-11
2.92804e-11
-6.04951e-11
3.62774e-11
-7.24603e-11
4.31912e-11
-8.20692e-11
4.97487e-11
-8.81736e-11
5.57335e-11
-8.99449e-11
6.0985e-11
-8.69339e-11
6.53915e-11
-7.91036e-11
6.88775e-11
-6.67834e-11
7.13952e-11
-5.06319e-11
7.29153e-11
-3.15579e-11
7.34221e-11
-1.0662e-11
7.29108e-11
1.08481e-11
7.13861e-11
3.17232e-11
6.88634e-11
5.0759e-11
6.53721e-11
6.68602e-11
6.09608e-11
7.91256e-11
5.57053e-11
8.69043e-11
4.97184e-11
8.98739e-11
4.31612e-11
8.80764e-11
3.62505e-11
8.19634e-11
2.92587e-11
7.23626e-11
2.24827e-11
6.04174e-11
1.6257e-11
4.72943e-11
1.08713e-11
3.44485e-11
6.16985e-12
2.3341e-11
1.03734e-11
3.47197e-12
8.00885e-12
-1.36141e-11
1.32931e-11
-2.86382e-11
1.91141e-11
-4.02987e-11
2.57248e-11
-5.39573e-11
3.27697e-11
-6.754e-11
3.9916e-11
-7.96066e-11
4.68819e-11
-8.9035e-11
5.34129e-11
-9.47047e-11
5.93172e-11
-9.58492e-11
6.44575e-11
-9.20742e-11
6.8743e-11
-8.33891e-11
7.21161e-11
-7.01565e-11
7.4543e-11
-5.30588e-11
7.60045e-11
-3.30194e-11
7.64915e-11
-1.1149e-11
7.60009e-11
1.13387e-11
7.45354e-11
3.31888e-11
7.2104e-11
5.31903e-11
6.8726e-11
7.02382e-11
6.44357e-11
8.3416e-11
5.92912e-11
9.20488e-11
5.33842e-11
9.57809e-11
4.68527e-11
9.46079e-11
3.9889e-11
8.89271e-11
3.27474e-11
7.95042e-11
2.57086e-11
6.74562e-11
1.91043e-11
5.38986e-11
1.32884e-11
4.02644e-11
8.00741e-12
2.8622e-11
1.36087e-11
4.77213e-12
1.01603e-11
-1.74117e-11
1.59972e-11
-3.44751e-11
2.22162e-11
-4.65177e-11
2.91682e-11
-6.09093e-11
3.64286e-11
-7.48003e-11
4.36805e-11
-8.68584e-11
5.06603e-11
-9.60149e-11
5.71339e-11
-1.01178e-10
6.2934e-11
-1.01649e-10
6.79458e-11
-9.7086e-11
7.20985e-11
-8.75418e-11
7.5351e-11
-7.34091e-11
7.76825e-11
-5.53903e-11
7.90833e-11
-3.44202e-11
7.95496e-11
-1.16153e-11
7.90804e-11
1.18079e-11
7.76764e-11
3.45927e-11
7.5341e-11
5.55257e-11
7.2084e-11
7.34953e-11
6.79264e-11
8.75735e-11
6.29103e-11
9.7065e-11
5.7107e-11
1.01584e-10
5.06323e-11
1.01083e-10
4.36538e-11
9.59056e-11
3.64058e-11
8.67522e-11
2.91511e-11
7.47108e-11
2.22054e-11
6.08443e-11
1.59918e-11
4.6478e-11
1.01586e-11
3.44553e-11
1.74044e-11
6.3628e-12
1.26368e-11
-2.17804e-11
1.89875e-11
-4.08258e-11
2.55683e-11
-5.30984e-11
3.28199e-11
-6.81609e-11
4.02472e-11
-8.22277e-11
4.75621e-11
-9.41733e-11
5.45196e-11
-1.02972e-10
6.09065e-11
-1.07565e-10
6.65807e-11
-1.07323e-10
7.14485e-11
-1.01954e-10
7.54581e-11
-9.15513e-11
7.85834e-11
-7.65344e-11
8.08156e-11
-5.76225e-11
8.21535e-11
-3.5758e-11
8.25985e-11
-1.20604e-11
8.21514e-11
1.2255e-11
8.08109e-11
3.59332e-11
7.85754e-11
5.77613e-11
7.54459e-11
7.66247e-11
7.14318e-11
9.15877e-11
6.65594e-11
1.01937e-10
6.08817e-11
1.07262e-10
5.44929e-11
1.07471e-10
4.7536e-11
1.02863e-10
4.02242e-11
9.4064e-11
3.2802e-11
8.2133e-11
2.55565e-11
6.80898e-11
1.89814e-11
5.30531e-11
1.26346e-11
4.0802e-11
2.1771e-11
8.2681e-12
1.54448e-11
-2.67175e-11
2.2261e-11
-4.7642e-11
2.91649e-11
-6.00023e-11
3.66705e-11
-7.56665e-11
4.42157e-11
-8.9773e-11
5.15525e-11
-1.0151e-10
5.84529e-11
-1.09873e-10
6.47263e-11
-1.13839e-10
7.02547e-11
-1.12852e-10
7.49647e-11
-1.06664e-10
7.88218e-11
-9.54084e-11
8.18141e-11
-7.95267e-11
8.39437e-11
-5.97521e-11
8.52171e-11
-3.70313e-11
8.56403e-11
-1.24837e-11
8.52157e-11
1.26797e-11
8.39405e-11
3.72084e-11
8.18081e-11
5.98936e-11
7.88121e-11
7.96208e-11
7.49505e-11
9.54492e-11
7.0236e-11
1.06652e-10
6.47036e-11
1.12794e-10
5.84279e-11
1.13747e-10
5.15272e-11
1.09763e-10
4.41928e-11
1.01398e-10
3.66521e-11
8.96737e-11
2.91523e-11
7.55896e-11
2.22542e-11
5.99513e-11
1.54423e-11
4.76139e-11
2.67056e-11
1.05077e-11
1.85865e-11
-3.22074e-11
2.58127e-11
-5.48682e-11
3.29991e-11
-6.71887e-11
4.07097e-11
-8.3377e-11
4.83243e-11
-9.73876e-11
5.56434e-11
-1.08829e-10
6.24541e-11
-1.16684e-10
6.8589e-11
-1.19973e-10
7.39536e-11
-1.18216e-10
7.84933e-11
-1.11204e-10
8.21899e-11
-9.9105e-11
8.50442e-11
-8.2381e-11
8.70683e-11
-6.17762e-11
8.82757e-11
-3.82387e-11
8.86768e-11
-1.28848e-11
8.8275e-11
1.30815e-11
8.70664e-11
3.8417e-11
8.50401e-11
6.19199e-11
8.21825e-11
8.24784e-11
7.84817e-11
9.91499e-11
7.39375e-11
1.11196e-10
6.85687e-11
1.18163e-10
6.24309e-11
1.19885e-10
5.56193e-11
1.16575e-10
4.83017e-11
1.08716e-10
4.0691e-11
9.72845e-11
3.29859e-11
8.32947e-11
2.58052e-11
6.7132e-11
1.85836e-11
5.48354e-11
3.21926e-11
1.30966e-11
2.20597e-11
-3.82226e-11
2.96358e-11
-6.24443e-11
3.70625e-11
-7.46153e-11
4.49266e-11
-9.12412e-11
5.25632e-11
-1.05024e-10
5.98272e-11
-1.16093e-10
6.65173e-11
-1.23374e-10
7.24908e-11
-1.25947e-10
7.76753e-11
-1.23401e-10
8.20336e-11
-1.15562e-10
8.55624e-11
-1.02634e-10
8.82744e-11
-8.50931e-11
9.01906e-11
-6.36924e-11
9.13309e-11
-3.9379e-11
9.17094e-11
-1.32633e-11
9.13309e-11
1.346e-11
9.019e-11
3.95579e-11
8.82721e-11
6.38378e-11
8.55573e-11
8.51933e-11
8.20246e-11
1.02683e-10
7.76618e-11
1.15559e-10
7.2473e-11
1.23352e-10
6.64961e-11
1.25862e-10
5.98044e-11
1.23266e-10
5.25413e-11
1.15979e-10
4.49079e-11
1.04918e-10
3.70487e-11
9.11539e-11
2.96277e-11
7.45531e-11
2.20564e-11
6.24067e-11
3.82044e-11
1.60446e-11
2.58588e-11
-4.47247e-11
3.37219e-11
-7.03074e-11
4.13452e-11
-8.22386e-11
4.93098e-11
-9.92058e-11
5.6923e-11
-1.12637e-10
6.40963e-11
-1.23266e-10
7.0637e-11
-1.29914e-10
7.64284e-11
-1.31738e-10
8.14179e-11
-1.28391e-10
8.55847e-11
-1.19729e-10
8.89395e-11
-1.05989e-10
9.15055e-11
-8.7659e-11
9.33118e-11
-6.54987e-11
9.4384e-11
-4.04512e-11
9.47397e-11
-1.3619e-11
9.43846e-11
1.38151e-11
9.33124e-11
4.06301e-11
9.1505e-11
6.56452e-11
8.89367e-11
8.77616e-11
8.55783e-11
1.06041e-10
8.14071e-11
1.1973e-10
7.6413e-11
1.28346e-10
7.0618e-11
1.31657e-10
6.40751e-11
1.29809e-10
5.6902e-11
1.23152e-10
4.92913e-11
1.12529e-10
4.13311e-11
9.9114e-11
3.37133e-11
8.21709e-11
2.58551e-11
7.02648e-11
4.4703e-11
1.93566e-11
2.9975e-11
-5.16668e-11
3.80616e-11
-7.8394e-11
4.58365e-11
-9.00135e-11
5.38478e-11
-1.07217e-10
6.13947e-11
-1.20184e-10
6.84438e-11
-1.30315e-10
7.48084e-11
-1.36279e-10
8.03984e-11
-1.37328e-10
8.51797e-11
-1.33172e-10
8.91463e-11
-1.23695e-10
9.23215e-11
-1.09164e-10
9.47382e-11
-9.00757e-11
9.64328e-11
-6.71934e-11
9.74361e-11
-4.14545e-11
9.77687e-11
-1.39516e-11
9.74374e-11
1.41464e-11
9.64346e-11
4.16328e-11
9.47394e-11
6.73404e-11
9.23208e-11
9.01803e-11
8.91423e-11
1.0922e-10
8.51714e-11
1.23701e-10
8.03857e-11
1.33132e-10
7.47916e-11
1.37251e-10
6.84244e-11
1.36177e-10
6.13748e-11
1.30202e-10
5.38296e-11
1.20074e-10
4.58223e-11
1.07121e-10
3.80525e-11
8.99407e-11
2.9971e-11
7.83463e-11
5.1641e-11
2.3033e-11
3.43973e-11
-5.89943e-11
4.26442e-11
-8.6641e-11
5.05246e-11
-9.78939e-11
5.85289e-11
-1.15221e-10
6.59696e-11
-1.27625e-10
7.28629e-11
-1.37209e-10
7.90267e-11
-1.42443e-10
8.43982e-11
-1.427e-10
8.8959e-11
-1.37733e-10
9.27176e-11
-1.27454e-10
9.57084e-11
-1.12155e-10
9.7973e-11
-9.23403e-11
9.95547e-11
-6.8775e-11
1.00488e-10
-4.23883e-11
1.00798e-10
-1.42608e-11
1.0049e-10
1.44539e-11
9.95576e-11
4.25654e-11
9.79759e-11
6.89221e-11
9.57097e-11
9.24464e-11
9.2716e-11
1.12213e-10
8.89534e-11
1.27464e-10
8.43881e-11
1.37697e-10
7.90123e-11
1.42627e-10
7.28455e-11
1.42343e-10
6.5951e-11
1.37096e-10
5.85114e-11
1.27513e-10
5.05104e-11
1.15122e-10
4.26348e-11
9.78162e-11
3.43929e-11
8.65882e-11
5.89642e-11
2.70698e-11
3.91126e-11
-6.66475e-11
4.74583e-11
-9.49867e-11
5.53969e-11
-1.05833e-10
6.33421e-11
-1.23167e-10
7.06395e-11
-1.34922e-10
7.73474e-11
-1.43917e-10
8.32877e-11
-1.48383e-10
8.84251e-11
-1.47837e-10
9.27547e-11
-1.42062e-10
9.62982e-11
-1.30997e-10
9.91004e-11
-1.14957e-10
1.01211e-10
-9.44506e-11
1.02678e-10
-7.02424e-11
1.03542e-10
-4.3252e-11
1.03828e-10
-1.45467e-11
1.03544e-10
1.47375e-11
1.02682e-10
4.34275e-11
1.01215e-10
7.0389e-11
9.91037e-11
9.45577e-11
9.62989e-11
1.15018e-10
9.27516e-11
1.31011e-10
8.84175e-11
1.42031e-10
8.32758e-11
1.47768e-10
7.7332e-11
1.48287e-10
7.06224e-11
1.43806e-10
6.33255e-11
1.3481e-10
5.5383e-11
1.23065e-10
4.74488e-11
1.0575e-10
3.9108e-11
9.4929e-11
6.66128e-11
3.14593e-11
4.41065e-11
-7.45632e-11
5.24917e-11
-1.03372e-10
6.04406e-11
-1.13781e-10
6.82766e-11
-1.31003e-10
7.53966e-11
-1.42043e-10
8.18914e-11
-1.50411e-10
8.75876e-11
-1.54079e-10
9.24767e-11
-1.52726e-10
9.65654e-11
-1.46151e-10
9.98878e-11
-1.3432e-10
1.02498e-10
-1.17567e-10
1.04452e-10
-9.64045e-11
1.05804e-10
-7.15945e-11
1.06597e-10
-4.40453e-11
1.06859e-10
-1.48089e-11
1.066e-10
1.4997e-11
1.05809e-10
4.42187e-11
1.04457e-10
7.17402e-11
1.02503e-10
9.65122e-11
9.98907e-11
1.1763e-10
9.65648e-11
1.34337e-10
9.24717e-11
1.46124e-10
8.75781e-11
1.52662e-10
8.18782e-11
1.53987e-10
7.53812e-11
1.50303e-10
6.8261e-11
1.4193e-10
6.0427e-11
1.30899e-10
5.24821e-11
1.13695e-10
4.41018e-11
1.03309e-10
7.45237e-11
3.61909e-11
4.93638e-11
-8.26757e-11
5.77315e-11
-1.1174e-10
6.56424e-11
-1.21692e-10
7.3322e-11
-1.38682e-10
8.02336e-11
-1.48954e-10
8.64893e-11
-1.56667e-10
9.19227e-11
-1.59513e-10
9.65509e-11
-1.57355e-10
1.0039e-10
-1.4999e-10
1.03486e-10
-1.37416e-10
1.059e-10
-1.19981e-10
1.07696e-10
-9.82003e-11
1.08932e-10
-7.28306e-11
1.09655e-10
-4.47677e-11
1.09893e-10
-1.50476e-11
1.09658e-10
1.52324e-11
1.08938e-10
4.49386e-11
1.07703e-10
7.2975e-11
1.05907e-10
9.83083e-11
1.03491e-10
1.20047e-10
1.00392e-10
1.37436e-10
9.65485e-11
1.49967e-10
9.19157e-11
1.57295e-10
8.64783e-11
1.59425e-10
8.02199e-11
1.56561e-10
7.33077e-11
1.48843e-10
6.56294e-11
1.38577e-10
5.77221e-11
1.21603e-10
4.9359e-11
1.11672e-10
8.26315e-11
4.12513e-11
5.48684e-11
-9.0919e-11
6.31645e-11
-1.20036e-10
7.09894e-11
-1.29517e-10
7.84689e-11
-1.46162e-10
8.51435e-11
-1.55629e-10
9.1136e-11
-1.62659e-10
9.62899e-11
-1.64667e-10
1.00646e-10
-1.61711e-10
1.04228e-10
-1.53572e-10
1.07092e-10
-1.4028e-10
1.09309e-10
-1.22198e-10
1.10945e-10
-9.98366e-11
1.12064e-10
-7.395e-11
1.12716e-10
-4.54192e-11
1.12931e-10
-1.52625e-11
1.12719e-10
1.54437e-11
1.12071e-10
4.55871e-11
1.10953e-10
7.40926e-11
1.09317e-10
9.99444e-11
1.07099e-10
1.22264e-10
1.04232e-10
1.40304e-10
1.00646e-10
1.53553e-10
9.62854e-11
1.61655e-10
9.11273e-11
1.64583e-10
8.51317e-11
1.62557e-10
7.84559e-11
1.55519e-10
7.09772e-11
1.46056e-10
6.31553e-11
1.29424e-10
5.48635e-11
1.19964e-10
9.08698e-11
4.66252e-11
6.06039e-11
-9.9227e-11
6.8777e-11
-1.28209e-10
7.64687e-11
-1.37209e-10
8.37083e-11
-1.53401e-10
9.01197e-11
-1.6204e-10
9.58268e-11
-1.68367e-10
1.00686e-10
-1.69526e-10
1.0476e-10
-1.65784e-10
1.08077e-10
-1.56889e-10
1.10707e-10
-1.4291e-10
1.12722e-10
-1.24213e-10
1.14198e-10
-1.01312e-10
1.152e-10
-7.49523e-11
1.1578e-10
-4.59994e-11
1.15972e-10
-1.54536e-11
1.15784e-10
1.56308e-11
1.15207e-10
4.6164e-11
1.14207e-10
7.50927e-11
1.12732e-10
1.0142e-10
1.10715e-10
1.24281e-10
1.08083e-10
1.42936e-10
1.04762e-10
1.56875e-10
1.00684e-10
1.65733e-10
9.58204e-11
1.69446e-10
9.011e-11
1.68267e-10
8.36968e-11
1.61932e-10
7.64575e-11
1.53295e-10
6.87682e-11
1.37114e-10
6.05991e-11
1.28133e-10
9.9173e-11
5.22959e-11
6.65537e-11
-1.07535e-10
7.45553e-11
-1.3621e-10
8.20683e-11
-1.44722e-10
8.90318e-11
-1.60365e-10
9.51562e-11
-1.68165e-10
1.00557e-10
-1.73768e-10
1.05109e-10
-1.74078e-10
1.08891e-10
-1.69566e-10
1.11938e-10
-1.59937e-10
1.14328e-10
-1.453e-10
1.16142e-10
-1.26026e-10
1.17456e-10
-1.02626e-10
1.1834e-10
-7.58369e-11
1.18849e-10
-4.65084e-11
1.19017e-10
-1.56209e-11
1.18854e-10
1.57938e-11
1.18348e-10
4.66693e-11
1.17466e-10
7.59749e-11
1.16153e-10
1.02733e-10
1.14339e-10
1.26095e-10
1.11946e-10
1.45329e-10
1.08895e-10
1.59926e-10
1.05109e-10
1.69519e-10
1.00553e-10
1.74002e-10
9.51485e-11
1.73672e-10
8.90219e-11
1.68058e-10
8.20581e-11
1.60259e-10
7.4547e-11
1.44625e-10
6.65489e-11
1.36131e-10
1.07477e-10
5.82454e-11
7.27012e-11
-1.15781e-10
8.04858e-11
-1.43995e-10
8.77766e-11
-1.52013e-10
9.44319e-11
-1.6702e-10
1.00247e-10
-1.7398e-10
1.05324e-10
-1.78844e-10
1.09556e-10
-1.7831e-10
1.13037e-10
-1.73047e-10
1.15809e-10
-1.62709e-10
1.17958e-10
-1.47449e-10
1.19567e-10
-1.27635e-10
1.20718e-10
-1.03778e-10
1.21485e-10
-7.66038e-11
1.21923e-10
-4.6946e-11
1.22066e-10
-1.57644e-11
1.21927e-10
1.59327e-11
1.21494e-10
4.71029e-11
1.2073e-10
7.6739e-11
1.19579e-10
1.03883e-10
1.1797e-10
1.27704e-10
1.15819e-10
1.47479e-10
1.13044e-10
1.62701e-10
1.09558e-10
1.73005e-10
1.05322e-10
1.78239e-10
1.00241e-10
1.78752e-10
9.44237e-11
1.73876e-10
8.77676e-11
1.66915e-10
8.04781e-11
1.51914e-10
7.26966e-11
1.43913e-10
1.15718e-10
6.44553e-11
7.90301e-11
-1.23905e-10
8.65551e-11
-1.5152e-10
9.35828e-11
-1.5904e-10
9.99013e-11
-1.73338e-10
1.05387e-10
-1.79465e-10
1.10122e-10
-1.83579e-10
1.14024e-10
-1.82212e-10
1.17199e-10
-1.76222e-10
1.1969e-10
-1.652e-10
1.21594e-10
-1.49352e-10
1.22997e-10
-1.29038e-10
1.23986e-10
-1.04767e-10
1.24635e-10
-7.72526e-11
1.25001e-10
-4.73123e-11
1.25121e-10
-1.58841e-11
1.25006e-10
1.60475e-11
1.24644e-10
4.74649e-11
1.23998e-10
7.73847e-11
1.23011e-10
1.0487e-10
1.21608e-10
1.29107e-10
1.19702e-10
1.49385e-10
1.17207e-10
1.65196e-10
1.14029e-10
1.76183e-10
1.10122e-10
1.82146e-10
1.05383e-10
1.83491e-10
9.98949e-11
1.79365e-10
9.3575e-11
1.73235e-10
8.65482e-11
1.58941e-10
7.90258e-11
1.51435e-10
1.23837e-10
7.09066e-11
8.55244e-11
-1.31849e-10
9.27504e-11
-1.58746e-10
9.94768e-11
-1.65767e-10
1.05434e-10
-1.79295e-10
1.10571e-10
-1.84602e-10
1.14949e-10
-1.87958e-10
1.18513e-10
-1.85776e-10
1.21373e-10
-1.79082e-10
1.23581e-10
-1.67408e-10
1.25238e-10
-1.51009e-10
1.26434e-10
-1.30234e-10
1.27259e-10
-1.05592e-10
1.2779e-10
-7.77833e-11
1.28085e-10
-4.76072e-11
1.28181e-10
-1.598e-11
1.2809e-10
1.61383e-11
1.27799e-10
4.77553e-11
1.27272e-10
7.7912e-11
1.26449e-10
1.05694e-10
1.25253e-10
1.30303e-10
1.23594e-10
1.51043e-10
1.21384e-10
1.67406e-10
1.1852e-10
1.79047e-10
1.14952e-10
1.85714e-10
1.10569e-10
1.87874e-10
1.05429e-10
1.84505e-10
9.94704e-11
1.79193e-10
9.27443e-11
1.65667e-10
8.55204e-11
1.58659e-10
1.31777e-10
7.75802e-11
9.21687e-11
-1.3956e-10
9.90593e-11
-1.65637e-10
1.0545e-10
-1.72157e-10
1.11022e-10
-1.84868e-10
1.15794e-10
-1.89374e-10
1.19802e-10
-1.91967e-10
1.23019e-10
-1.88993e-10
1.2556e-10
-1.81622e-10
1.2748e-10
-1.69328e-10
1.28888e-10
-1.52417e-10
1.29876e-10
-1.31223e-10
1.30538e-10
-1.06254e-10
1.3095e-10
-7.81959e-11
1.31174e-10
-4.78309e-11
1.31246e-10
-1.60521e-11
1.31179e-10
1.62051e-11
1.3096e-10
4.79743e-11
1.30551e-10
7.83209e-11
1.29892e-10
1.06353e-10
1.28904e-10
1.31291e-10
1.27495e-10
1.52452e-10
1.25572e-10
1.69329e-10
1.23028e-10
1.81591e-10
1.19807e-10
1.88935e-10
1.15794e-10
1.91887e-10
1.1102e-10
1.89279e-10
1.05445e-10
1.84768e-10
9.90541e-11
1.72058e-10