/*--------------------------------*- C++ -*----------------------------------*\
| =========                 |                                                 |
| \\      /  F ield         | OpenFOAM: The Open Source CFD Toolbox           |
|  \\    /   O peration     | Version:  2.4.0                                 |
|   \\  /    A nd           | Web:      www.OpenFOAM.org                      |
|    \\/     M anipulation  |                                                 |
\*---------------------------------------------------------------------------*/
FoamFile
{
    version     2.0;
    format      ascii;
    class       volVectorField;
    location    "0.05";
    object      U;
}
// * * * * * * * * * * * * * * * * * * * * * * * * * * * * * * * * * * * * * //

dimensions      [0 1 -1 0 0 0 0];

internalField   nonuniform List<vector> 
7200
(
(3.52806e-07 5.54716e-07 0)
(1.6264e-06 2.81999e-06 1.87126e-23)
(-1.3043e-05 -2.8288e-05 -1.91476e-24)
(-5.6444e-05 -0.000102627 -3.7191e-24)
(-9.07993e-05 -0.000133768 4.70701e-22)
(-4.74702e-05 -4.02972e-05 -1.54944e-21)
(0.000145681 0.000200009 -1.89358e-23)
(0.000566038 0.000572112 2.10092e-23)
(0.0012788 0.00102479 3.57308e-21)
(0.00229828 0.00146449 -6.26806e-23)
(0.00355849 0.00177201 2.1365e-21)
(0.00491493 0.00184049 1.92038e-21)
(0.00617586 0.00161308 1.54858e-21)
(0.0071469 0.00110316 0)
(0.00767314 0.000391958 2.01343e-24)
(0.00766976 -0.000391541 0)
(0.00713768 -0.00110157 5.19794e-24)
(0.00616325 -0.00160975 6.13454e-23)
(0.00490197 -0.00183573 -1.85505e-21)
(0.00354774 -0.00176686 -8.45937e-23)
(0.00229104 -0.00146011 -3.03419e-23)
(0.00127499 -0.00102192 7.01835e-21)
(0.000564618 -0.000570777 -2.14952e-23)
(0.000145395 -0.00019965 -2.16687e-21)
(-4.74661e-05 4.03137e-05 -7.44765e-22)
(-9.08051e-05 0.000133771 -4.48211e-22)
(-5.6463e-05 0.000102647 0)
(-1.3048e-05 2.82927e-05 -1.21511e-23)
(1.62696e-06 -2.82185e-06 1.4429e-23)
(3.53173e-07 -5.5544e-07 -1.61728e-24)
(1.21742e-07 2.25267e-06 3.9232e-26)
(-4.52976e-06 -5.09496e-06 -1.51851e-23)
(-4.98972e-05 -0.000126371 -5.8653e-23)
(-0.000142799 -0.000318899 -6.91335e-24)
(-0.000160092 -0.000317488 -6.94522e-22)
(0.000101238 5.57047e-05 -6.93168e-23)
(0.000846531 0.000819009 2.36964e-23)
(0.00227031 0.00190129 -4.24725e-21)
(0.00450079 0.00313824 -2.02724e-22)
(0.0075142 0.0042708 2.71843e-21)
(0.0110864 0.00499897 -2.8016e-21)
(0.0148176 0.00507366 -2.85591e-21)
(0.0182147 0.00437795 -4.40033e-21)
(0.0207959 0.00296549 -6.88426e-22)
(0.0221844 0.00104943 6.66309e-23)
(0.0221757 -0.0010465 5.69866e-23)
(0.0207721 -0.00295991 -6.64057e-22)
(0.0181816 -0.00436839 2.25826e-21)
(0.0147827 -0.00506077 2.17832e-22)
(0.0110563 -0.00498506 -2.9994e-21)
(0.00749275 -0.00425869 2.79189e-21)
(0.00448845 -0.0031299 -2.44148e-22)
(0.0022649 -0.00189701 -4.28295e-21)
(0.000844961 -0.000817588 3.27528e-21)
(0.000101034 -5.55075e-05 1.14856e-21)
(-0.000160091 0.000317499 1.38852e-21)
(-0.00014282 0.000318948 6.4208e-24)
(-4.99078e-05 0.000126391 1.12256e-23)
(-4.53091e-06 5.09091e-06 -2.26547e-23)
(1.2247e-07 -2.2555e-06 3.04714e-25)
(-1.03448e-06 3.48806e-06 -2.02399e-24)
(-1.93036e-05 -3.14302e-05 1.23808e-25)
(-0.000109237 -0.000251603 -5.50234e-23)
(-0.000229705 -0.000500027 4.56043e-22)
(-0.000135578 -0.000367949 -8.70071e-22)
(0.000496989 0.000353332 2.53509e-21)
(0.00197366 0.00164939 0)
(0.00456164 0.00337645 4.37426e-21)
(0.00839335 0.00525478 -5.22096e-21)
(0.0133566 0.00688947 -2.83155e-21)
(0.0190561 0.0078576 2.63042e-22)
(0.0248715 0.00783074 -2.11292e-23)
(0.0300798 0.00667372 2.12462e-21)
(0.0339946 0.00448633 6.9331e-22)
(0.0360878 0.00158277 -1.76068e-24)
(0.0360751 -0.00157552 -1.07426e-22)
(0.0339595 -0.00447583 6.72514e-22)
(0.0300303 -0.00665833 0)
(0.0248181 -0.00781125 4.98842e-21)
(0.0190085 -0.0078369 2.59672e-21)
(0.0133211 -0.00687125 -2.7314e-21)
(0.00837152 -0.00524179 -5.06253e-21)
(0.00455107 -0.00336932 -3.04713e-23)
(0.00196998 -0.00164671 1.67765e-21)
(0.000496245 -0.000352806 1.66743e-23)
(-0.000135629 0.000367981 -1.60878e-21)
(-0.000229726 0.000500086 0)
(-0.000109256 0.000251637 -2.83438e-23)
(-1.93068e-05 3.14256e-05 0)
(-1.0332e-06 -3.49357e-06 2.93597e-24)
(-4.67504e-06 2.8451e-06 2.24768e-24)
(-4.76142e-05 -7.78013e-05 0)
(-0.000182914 -0.000389127 1.09142e-22)
(-0.000277149 -0.000623617 8.48189e-23)
(4.54785e-05 -0.000279707 8.92161e-22)
(0.00120313 0.00083346 -1.3088e-21)
(0.0035716 0.00265009 -2.83346e-23)
(0.00744867 0.00494352 -4.11666e-21)
(0.0129217 0.00732666 0)
(0.0197583 0.0093017 -3.97357e-23)
(0.0273953 0.0103706 2.71272e-21)
(0.0350299 0.0101702 -2.25583e-21)
(0.0417692 0.00857296 1.67884e-23)
(0.0467867 0.00572437 0)
(0.0494552 0.00201422 5.15066e-23)
(0.0494394 -0.00200128 9.95052e-23)
(0.0467429 -0.0057082 0)
(0.0417067 -0.00855194 1.64341e-23)
(0.0349612 -0.0101452 -2.39324e-21)
(0.0273323 -0.0103446 -2.65427e-21)
(0.0197094 -0.00927877 0)
(0.0128899 -0.0073099 0)
(0.00743197 -0.00493385 4.0335e-21)
(0.00356499 -0.00264609 -1.70105e-21)
(0.00120141 -0.000832495 -1.2564e-21)
(4.52605e-05 0.000279791 8.51337e-22)
(-0.000277176 0.00062367 0)
(-0.000182939 0.000389168 1.52694e-22)
(-4.7621e-05 7.77964e-05 6.28885e-26)
(-4.67388e-06 -2.85405e-06 0)
(-1.26872e-05 -1.27575e-06 4.89381e-24)
(-9.13548e-05 -0.000143139 1.0571e-24)
(-0.000255946 -0.000521491 -1.25886e-24)
(-0.000245994 -0.000668728 7.28125e-23)
(0.000433689 -4.83511e-05 1.00663e-21)
(0.00226589 0.00147923 2.24828e-23)
(0.00566732 0.00378585 -5.33361e-23)
(0.0109258 0.00655862 4.23365e-21)
(0.0180454 0.0093185 0)
(0.0266573 0.0114972 -2.43669e-21)
(0.0360439 0.0125598 3.9329e-23)
(0.0452579 0.0121395 1.57435e-22)
(0.0532863 0.0101317 1.55649e-23)
(0.0592124 0.0067239 1.48033e-24)
(0.062349 0.0023604 -5.32211e-23)
(0.0623311 -0.00234077 -4.6171e-23)
(0.0591622 -0.00670149 5.16558e-22)
(0.0532139 -0.0101051 0)
(0.0451768 -0.0121097 -1.80134e-23)
(0.0359677 -0.0125297 1.73732e-23)
(0.026596 -0.0114708 3.77897e-23)
(0.0180035 -0.0092989 -3.55938e-23)
(0.0109023 -0.00654687 -4.08696e-21)
(0.00565697 -0.00378062 -1.64991e-21)
(0.00226269 -0.00147778 1.30359e-21)
(0.000433118 4.85123e-05 9.64828e-22)
(-0.000246053 0.000668764 6.06894e-22)
(-0.000255975 0.00052153 -1.59542e-22)
(-9.13659e-05 0.000143132 0)
(-1.26864e-05 1.26211e-06 0)
(-2.70193e-05 -1.03921e-05 9.87826e-25)
(-0.000148982 -0.000223331 2.65951e-23)
(-0.000306391 -0.000629815 -2.27359e-24)
(-9.33926e-05 -0.000619029 6.26543e-23)
(0.00107812 0.000324172 7.96598e-24)
(0.00372637 0.00226937 2.011e-23)
(0.0082807 0.00502047 0)
(0.0149822 0.00818116 0)
(0.0237244 0.0112002 2.17952e-21)
(0.0339987 0.0134687 4.65303e-21)
(0.0449525 0.0144441 -2.14405e-21)
(0.0555295 0.0137772 4.04748e-21)
(0.0646378 0.0113945 0)
(0.0713089 0.00751977 0)
(0.0748244 0.00263431 0)
(0.074805 -0.00260728 0)
(0.0712543 -0.0074907 -5.15303e-22)
(0.0645582 -0.0113625 -4.97207e-24)
(0.0554388 -0.0137434 -1.88727e-21)
(0.0448652 -0.014411 -1.61992e-23)
(0.0339261 -0.01344 0)
(0.0236726 -0.0111787 0)
(0.0149512 -0.00816791 0)
(0.00826588 -0.00501425 3.31031e-21)
(0.00372115 -0.00226748 1.93398e-23)
(0.00107694 -0.000323932 -1.00601e-21)
(-9.35406e-05 0.000619033 -6.26591e-22)
(-0.000306425 0.000629836 0)
(-0.000148997 0.000223317 0)
(-2.70192e-05 1.03715e-05 0)
(-4.90884e-05 -2.56712e-05 -7.30551e-24)
(-0.000213927 -0.000311336 -7.74537e-23)
(-0.000304545 -0.00069552 -3.53954e-24)
(0.000226971 -0.00046404 6.27591e-23)
(0.00202585 0.000829923 -1.09983e-21)
(0.00562008 0.00317943 -2.269e-23)
(0.0114243 0.00631846 -1.60935e-21)
(0.0196015 0.0097753 -2.96088e-23)
(0.0299185 0.0129484 -9.02785e-23)
(0.0417327 0.0152139 -4.49588e-21)
(0.0540795 0.0160433 4.30322e-21)
(0.0658251 0.0151184 -1.95042e-21)
(0.0758325 0.0123998 -1.33665e-23)
(0.08311 0.00814129 4.57298e-22)
(0.0869299 0.00284679 -1.26955e-24)
(0.0869096 -0.00281185 1.19802e-24)
(0.0830526 -0.00810525 -4.38235e-22)
(0.0757478 -0.0123625 -6.77073e-22)
(0.0657272 -0.0150809 1.88734e-21)
(0.0539831 -0.016008 1.50889e-23)
(0.0416502 -0.0151837 3.40645e-23)
(0.0298573 -0.0129259 -3.22102e-23)
(0.0195628 -0.00976123 -2.86874e-23)
(0.0114044 -0.00631163 -3.21648e-21)
(0.00561225 -0.00317723 -2.19135e-23)
(0.00202374 -0.000829648 -1.05262e-21)
(0.000226637 0.000463983 -7.52002e-22)
(-0.000304594 0.000695504 -7.28397e-24)
(-0.000213946 0.000311306 0)
(-4.90892e-05 2.56393e-05 0)
(-7.89292e-05 -4.76949e-05 0)
(-0.000273072 -0.000397635 5.6575e-23)
(-0.000213194 -0.000701961 0)
(0.000763592 -0.0001996 -8.37644e-22)
(0.0033213 0.00145581 1.652e-23)
(0.00797687 0.00418282 0)
(0.0151042 0.00764594 1.68891e-21)
(0.0247631 0.0113104 0)
(0.0365881 0.0145461 -2.10233e-21)
(0.0498143 0.0167349 2.1273e-21)
(0.0633892 0.017378 -3.97079e-21)
(0.0761297 0.0161954 2.81292e-24)
(0.0868798 0.0131816 6.69989e-22)
(0.0946468 0.00861376 -3.73841e-23)
(0.0987088 0.0030071 0)
(0.098688 -0.00296395 3.29943e-23)
(0.0945878 -0.00857058 8.44801e-22)
(0.0867921 -0.0131389 6.8947e-22)
(0.0760268 -0.0161545 1.45062e-23)
(0.0632859 -0.0173411 -1.88072e-21)
(0.0497235 -0.0167042 0)
(0.0365182 -0.0145234 -1.88986e-21)
(0.0247169 -0.0112962 -2.8734e-23)
(0.0150788 -0.00763898 3.18059e-21)
(0.00796588 -0.00418056 4.18675e-23)
(0.0033179 -0.0014556 1.06151e-21)
(0.00076293 0.000199431 -3.48834e-23)
(-0.000213283 0.000701877 -4.55273e-24)
(-0.000273094 0.000397574 3.29185e-24)
(-7.89308e-05 4.76447e-05 0)
(-0.000114117 -7.6289e-05 2.46886e-25)
(-0.000305428 -0.000470963 -1.30982e-22)
(1.14509e-05 -0.000635845 -6.69434e-24)
(0.0015654 0.000172343 1.4588e-23)
(0.00500522 0.00218485 -1.71717e-23)
(0.0108206 0.00525211 0)
(0.0193203 0.00897161 0)
(0.0304435 0.0127611 0)
(0.0436946 0.0159819 1.84745e-21)
(0.0582031 0.0180379 1.9872e-24)
(0.0728518 0.0184694 1.97722e-21)
(0.0864321 0.0170379 -1.57543e-21)
(0.0977897 0.0137697 -5.30232e-23)
(0.105947 0.00895901 -4.2273e-22)
(0.110199 0.00312316 3.47552e-23)
(0.110178 -0.00307166 -3.31384e-23)
(0.105888 -0.00890861 -4.03314e-22)
(0.0977007 -0.0137217 1.11081e-23)
(0.0863262 -0.0169939 -1.08583e-23)
(0.0727434 -0.0184313 3.61863e-21)
(0.0581054 -0.0180073 0)
(0.0436169 -0.0159598 1.94145e-21)
(0.0303898 -0.0127475 -2.69269e-23)
(0.019289 -0.00896509 -1.54854e-21)
(0.010806 -0.00525014 -1.28217e-24)
(0.00500013 -0.00218489 -1.77847e-23)
(0.00156422 -0.000172714 8.58847e-22)
(1.12791e-05 0.000635644 -9.72029e-24)
(-0.000305455 0.000470849 0)
(-0.000114119 7.62094e-05 0)
(-0.000148543 -0.000110436 -1.0983e-24)
(-0.000281235 -0.000519257 -3.76254e-23)
(0.000418294 -0.000488333 -7.13866e-22)
(0.00268014 0.000644372 1.50472e-23)
(0.00711398 0.00299742 -1.75969e-23)
(0.0141692 0.00636003 1.34804e-21)
(0.0240669 0.0102674 -1.55776e-21)
(0.0366166 0.0141071 2.68242e-23)
(0.0512011 0.0172494 -1.89755e-21)
(0.066863 0.0191315 1.74915e-21)
(0.0824421 0.0193383 2.85612e-23)
(0.0967242 0.017673 1.12234e-22)
(0.108573 0.0141903 -1.16278e-21)
(0.117037 0.0091958 3.58564e-22)
(0.121435 0.00320171 -3.49077e-23)
(0.121415 -0.00314187 0)
(0.116978 -0.0091382 0)
(0.108484 -0.0141371 1.02565e-23)
(0.0966171 -0.0176261 -1.41043e-21)
(0.0823304 -0.0192993 -1.75103e-21)
(0.0667599 -0.0191014 -1.72055e-21)
(0.0511166 -0.0172286 0)
(0.0365559 -0.0140949 2.58908e-23)
(0.0240296 -0.0102619 1.45285e-21)
(0.0141505 -0.0063588 2.01097e-23)
(0.00710678 -0.00299797 1.08141e-21)
(0.00267823 -0.000645086 -1.31952e-23)
(0.00041797 0.000487941 1.07251e-23)
(-0.000281274 0.000519052 -1.74402e-22)
(-0.000148543 0.000110309 -4.15371e-25)
(-0.000171137 -0.00014828 1.34756e-23)
(-0.000161621 -0.000530727 4.41659e-22)
(0.0010595 -0.000255741 7.34524e-22)
(0.00415308 0.00120456 9.58454e-22)
(0.00967917 0.00387238 0)
(0.0180347 0.00748031 -1.39645e-21)
(0.0293339 0.0115087 1.0491e-22)
(0.0432551 0.0153331 0)
(0.0590726 0.0183462 -1.67615e-21)
(0.0757618 0.0200262 -1.81813e-21)
(0.0921391 0.020005 -1.53953e-21)
(0.107001 0.0181253 1.1671e-22)
(0.119239 0.0144665 5.74973e-22)
(0.127939 0.00934029 -3.59329e-22)
(0.132447 0.00324851 -9.23461e-25)
(0.132427 -0.00318044 8.46097e-25)
(0.127881 -0.00927558 2.49432e-24)
(0.119152 -0.0144081 -3.28953e-24)
(0.106894 -0.0180756 1.02784e-22)
(0.0920258 -0.0199653 1.12503e-23)
(0.0756549 -0.0199971 1.76271e-21)
(0.0589825 -0.0183272 1.59246e-21)
(0.0431878 -0.0153229 -2.47752e-23)
(0.0292906 -0.0115049 -1.45541e-21)
(0.0180115 -0.00748034 -6.30509e-25)
(0.00966947 -0.00387379 -1.14434e-21)
(0.00415016 -0.00120582 9.31042e-22)
(0.00105893 0.000255048 -2.12096e-23)
(-0.000161689 0.000530379 1.9246e-22)
(-0.000171135 0.00014808 7.86113e-24)
(-0.000164675 -0.000187227 -1.33376e-23)
(0.000101069 -0.000494958 -2.47995e-22)
(0.0019884 6.02264e-05 -1.18824e-23)
(0.00602587 0.00183765 -3.66563e-23)
(0.0127273 0.00478807 1.78292e-23)
(0.0224235 0.0085884 2.06627e-23)
(0.0351071 0.0126749 1.4551e-21)
(0.0503307 0.0164283 2.45404e-23)
(0.0672766 0.0192735 3.27233e-21)
(0.0848714 0.0207343 -2.39947e-23)
(0.101925 0.0204889 3.04811e-21)
(0.117258 0.0184171 1.34023e-21)
(0.1298 0.0146183 0)
(0.138674 0.00940639 -3.05875e-22)
(0.143262 0.00326849 0)
(0.143243 -0.00319241 0)
(0.138619 -0.00933474 0)
(0.129714 -0.0145549 4.58149e-22)
(0.117153 -0.0183646 1.31334e-21)
(0.101812 -0.0204488 1.38309e-21)
(0.0847622 -0.0207065 0)
(0.067182 -0.0192568 -1.63562e-21)
(0.0502577 -0.0164206 1.46446e-21)
(0.035058 -0.0126735 2.16928e-23)
(0.0223957 -0.00859025 -3.63226e-25)
(0.0127148 -0.00479076 -1.73937e-23)
(0.00602165 -0.00183973 -2.11046e-23)
(0.00198745 -6.1379e-05 0)
(0.000100945 0.000494386 2.86127e-22)
(-0.000164669 0.000186914 -5.94951e-23)
(-0.000104794 -0.000224127 0)
(0.000562239 -0.000403918 3.6267e-22)
(0.00325732 0.000452735 -1.33168e-23)
(0.00833585 0.00252634 -4.6023e-23)
(0.0162798 0.00572315 1.76818e-23)
(0.0273366 0.00966197 -1.99129e-23)
(0.0413691 0.0137494 1.37141e-21)
(0.0578153 0.0173858 -1.44056e-21)
(0.0757826 0.0200352 -1.59512e-21)
(0.0941669 0.0212686 -2.23879e-23)
(0.111787 0.0208088 -1.44393e-21)
(0.127494 0.0185685 2.06644e-24)
(0.140264 0.0146636 8.41681e-24)
(0.149262 0.00940613 3.07319e-22)
(0.153903 0.00326588 -2.57521e-23)
(0.153885 -0.00318207 0)
(0.149209 -0.00932778 2.81685e-24)
(0.140181 -0.0145953 -4.63358e-22)
(0.127392 -0.0185134 -9.91706e-24)
(0.111675 -0.0207683 -2.68548e-21)
(0.0940568 -0.0212423 -1.37345e-21)
(0.0756848 -0.0200212 -2.24408e-23)
(0.0577375 -0.0173813 -1.50632e-21)
(0.0413146 -0.0137509 4.16654e-23)
(0.0273041 -0.00966626 -1.37752e-25)
(0.0162641 -0.00572763 1.04129e-21)
(0.00833004 -0.00252961 -1.87672e-21)
(0.00325584 -0.000454564 0)
(0.000562019 0.000403005 -2.98935e-22)
(-0.000104782 0.000223641 5.30658e-23)
(4.06562e-05 -0.000255522 0)
(0.00128334 -0.000252777 -3.59891e-22)
(0.00491556 0.000910517 -1.44105e-23)
(0.0111156 0.00325253 -9.81768e-22)
(0.0203528 0.00665722 -1.7391e-23)
(0.0327702 0.0106814 -1.18179e-21)
(0.0481001 0.0147192 -1.37169e-21)
(0.065681 0.0182024 1.45972e-21)
(0.0845627 0.0206375 -2.18428e-23)
(0.103627 0.0216427 -1.35306e-21)
(0.121711 0.0209821 2.15688e-23)
(0.137709 0.0185977 0)
(0.150641 0.0146178 0)
(0.15972 0.00934991 0)
(0.164393 0.0032443 4.98091e-23)
(0.164376 -0.00315312 0)
(0.15967 -0.00926513 2.3706e-22)
(0.150563 -0.0145448 2.55595e-24)
(0.13761 -0.0185401 0)
(0.121602 -0.0209412 1.30088e-21)
(0.103517 -0.0216179 2.72959e-21)
(0.084463 -0.0206264 -1.35091e-21)
(0.0655992 -0.0182014 1.27757e-21)
(0.0480407 -0.0147242 -1.99941e-26)
(0.032733 -0.0106887 1.14467e-21)
(0.0203336 -0.00666405 -1.08449e-21)
(0.0111079 -0.0032574 9.51797e-22)
(0.00491337 -0.000913306 -7.86029e-22)
(0.00128296 0.000251363 0)
(4.06714e-05 0.000254779 0)
(0.000311792 -0.000277937 0)
(0.00232958 -4.0453e-05 0)
(0.00700767 0.00141893 8.05999e-22)
(0.0143928 0.00399837 1.49772e-23)
(0.024957 0.0075713 -1.69777e-23)
(0.0387159 0.0116298 1.18721e-21)
(0.0552784 0.0155752 3.92139e-23)
(0.0739006 0.0188779 -2.08174e-23)
(0.0935913 0.0210883 0)
(0.113232 0.0218701 1.34769e-21)
(0.131689 0.0210252 1.17846e-21)
(0.147902 0.018521 -7.07195e-24)
(0.160942 0.0144945 3.86545e-22)
(0.170064 0.00924671 -6.72276e-25)
(0.17475 0.00320687 -2.33733e-23)
(0.174734 -0.00310872 1.64193e-23)
(0.170017 -0.00915583 -2.40197e-22)
(0.160868 -0.014417 3.56052e-22)
(0.147808 -0.0184608 -9.37747e-22)
(0.131583 -0.020984 0)
(0.113123 -0.0218469 -8.51689e-23)
(0.0934908 -0.0210802 2.5642e-21)
(0.0738159 -0.0188807 -1.2961e-21)
(0.0552147 -0.0155843 9.40128e-26)
(0.0386743 -0.0116408 -7.99385e-23)
(0.0249342 -0.00758108 9.71794e-22)
(0.0143829 -0.00400534 8.99407e-22)
(0.00700457 -0.00142304 8.02704e-22)
(0.00232897 3.83202e-05 1.15812e-23)
(0.000311806 0.000276817 0)
(0.000756354 -0.000288177 0)
(0.00376723 0.000230184 4.4333e-22)
(0.00957211 0.00196125 -1.62792e-21)
(0.0181901 0.00474711 -9.27281e-22)
(0.0300982 0.00844816 -9.92888e-22)
(0.0451616 0.0124937 1.72331e-23)
(0.0628812 0.0163117 -1.8578e-23)
(0.0824479 0.0194146 0)
(0.102845 0.0213966 -1.2112e-21)
(0.122965 0.0219644 1.15448e-21)
(0.141713 0.0209536 -1.15641e-21)
(0.158076 0.018353 8.20795e-24)
(0.171174 0.0143059 -7.31841e-22)
(0.180308 0.0091043 0)
(0.184992 0.00315626 0)
(0.184977 -0.00305159 -1.70883e-23)
(0.180264 -0.00900769 2.17616e-24)
(0.171104 -0.014224 -3.32786e-23)
(0.157987 -0.0182905 9.35783e-22)
(0.141612 -0.0209121 1.02708e-21)
(0.12286 -0.0219428 -2.33043e-21)
(0.102745 -0.0213917 -1.25278e-21)
(0.0823614 -0.0194216 1.85881e-23)
(0.0628139 -0.0163253 -1.75001e-23)
(0.0451158 -0.012509 -1.07354e-21)
(0.0300718 -0.0084615 -1.0114e-21)
(0.0181779 -0.00475674 -9.40884e-22)
(0.00956791 -0.00196711 -7.34125e-22)
(0.0037663 -0.000233318 6.91654e-24)
(0.000756356 0.000286517 -5.23516e-24)
(0.00142879 -0.000283612 -5.63772e-22)
(0.00566076 0.000552467 -3.9696e-23)
(0.0126405 0.00252005 1.54343e-21)
(0.0225256 0.00548366 9.55574e-22)
(0.0357771 0.00927248 1.01721e-21)
(0.0520916 0.0132626 -1.62493e-23)
(0.0708848 0.0169261 1.74546e-23)
(0.0912979 0.019817 0)
(0.112302 0.0215725 1.22438e-21)
(0.132813 0.0219388 -1.18302e-21)
(0.151777 0.0207814 0)
(0.168231 0.0181069 0)
(0.181345 0.0140622 3.52343e-22)
(0.190465 0.00892944 5.76677e-25)
(0.195134 0.00309479 1.87635e-23)
(0.19512 -0.00298408 4.92868e-25)
(0.190424 -0.00882747 -4.90395e-25)
(0.181281 -0.0139764 -3.22827e-22)
(0.168148 -0.0180421 7.94753e-22)
(0.151681 -0.0207395 -1.97358e-21)
(0.132712 -0.0219187 1.14265e-21)
(0.112204 -0.0215707 -1.68347e-23)
(0.0912106 -0.0198282 1.05546e-21)
(0.0708148 -0.0169444 0)
(0.052042 -0.0132826 1.56128e-23)
(0.0357471 -0.00929 -1.42744e-23)
(0.0225109 -0.00549656 0)
(0.012635 -0.00252816 1.45828e-21)
(0.00565939 -0.000556955 0)
(0.00142876 0.000281194 -5.50037e-22)
(0.00238881 -0.000262406 5.94525e-22)
(0.00806999 0.000916431 3.09096e-22)
(0.0162375 0.00307851 -7.66534e-22)
(0.0274128 0.00619488 1.35655e-23)
(0.0419892 0.010031 -1.51097e-23)
(0.0594877 0.0139292 9.52111e-22)
(0.0792655 0.0174182 -3.2476e-23)
(0.100427 0.0200911 1.70632e-23)
(0.121945 0.0216263 1.04728e-21)
(0.142764 0.0218061 -1.55349e-23)
(0.161876 0.0205216 -9.10719e-22)
(0.17837 0.0177945 1.42831e-24)
(0.191464 0.0137728 3.04567e-22)
(0.200546 0.00872794 -5.34351e-25)
(0.205189 0.00302445 -1.88937e-23)
(0.205177 -0.0029082 -4.48521e-25)
(0.200509 -0.00862105 2.2702e-24)
(0.191406 -0.0136832 2.78011e-22)
(0.178293 -0.0177275 -8.17656e-23)
(0.161786 -0.0204794 8.84414e-23)
(0.142667 -0.0217875 0)
(0.121849 -0.0216276 -9.87003e-22)
(0.10034 -0.0201067 -2.06334e-21)
(0.0791936 -0.0174416 1.52277e-23)
(0.059435 -0.0139544 8.92714e-22)
(0.0419558 -0.0100533 -1.33649e-23)
(0.0273954 -0.00621168 0)
(0.0162305 -0.00308943 -7.35321e-22)
(0.00806808 -0.000922701 5.346e-25)
(0.00238873 0.00025895 5.9611e-22)
(0.00369946 -0.000223679 9.48773e-22)
(0.0110476 0.00130959 -4.59247e-22)
(0.0203807 0.00362151 -6.8786e-22)
(0.0328608 0.00686956 0)
(0.0487255 0.0107128 0)
(0.0673298 0.0144892 -9.69616e-22)
(0.0879996 0.0177904 1.51832e-23)
(0.109813 0.0202444 9.64234e-22)
(0.131754 0.021569 -8.79581e-23)
(0.152805 0.0215785 9.18855e-22)
(0.172006 0.0201864 9.47757e-22)
(0.188495 0.0174262 -1.16422e-23)
(0.201538 0.0134458 -2.9527e-22)
(0.210563 0.00850489 0)
(0.215171 0.00294695 0)
(0.215159 -0.00282567 0)
(0.21053 -0.0083935 0)
(0.201485 -0.0133527 -2.71183e-22)
(0.188424 -0.0173571 -7.31487e-22)
(0.171922 -0.0201437 1.65921e-21)
(0.152714 -0.0215612 8.89379e-22)
(0.131662 -0.0215732 7.3436e-23)
(0.109727 -0.0202643 1.03145e-22)
(0.0879266 -0.017819 9.22925e-26)
(0.0672744 -0.01452 -8.28279e-23)
(0.048689 -0.0107404 9.96859e-25)
(0.0328408 -0.00689089 -1.20905e-23)
(0.0203721 -0.00363586 0)
(0.011045 -0.00131815 0)
(0.0036993 0.000218835 0)
(0.00542493 -0.000167577 -2.23084e-21)
(0.0146371 0.00171794 -4.6252e-22)
(0.0250818 0.0041365 7.01335e-22)
(0.0388744 0.00749829 -7.88462e-22)
(0.0559728 0.0113091 0)
(0.0755959 0.014941 0)
(0.0970637 0.0180467 0)
(0.119434 0.0202851 -9.76983e-22)
(0.141715 0.0214112 -1.86489e-21)
(0.162929 0.0212675 -9.69513e-22)
(0.182164 0.0197866 7.92508e-22)
(0.198608 0.0170115 5.97887e-24)
(0.211574 0.0130881 -2.54596e-22)
(0.220524 0.00826465 0)
(0.225089 0.00286377 0)
(0.225079 -0.00273799 0)
(0.220495 -0.00814921 1.52095e-24)
(0.211526 -0.0129918 2.27967e-22)
(0.198544 -0.0169404 0)
(0.182087 -0.0197434 -8.00103e-22)
(0.162844 -0.0212514 -8.82354e-22)
(0.141627 -0.0214182 9.19808e-22)
(0.11935 -0.0203092 9.14397e-22)
(0.0969906 -0.0180806 8.08313e-22)
(0.0755386 -0.0149776 -8.40872e-22)
(0.0559335 -0.0113424 1.24245e-23)
(0.0388517 -0.00752476 2.97495e-25)
(0.0250714 -0.00415492 -1.02284e-23)
(0.0146337 -0.00172935 0)
(0.00542465 0.000160924 0)
(0.00762812 -9.52568e-05 2.72486e-21)
(0.0188714 0.00212702 2.29949e-22)
(0.0303469 0.00461384 0)
(0.0454541 0.00807322 8.11878e-22)
(0.0637138 0.0118135 0)
(0.0842637 0.0152857 0)
(0.106435 0.0181927 7.8927e-22)
(0.129272 0.0202221 0)
(0.151814 0.0211636 7.90034e-23)
(0.173127 0.0208841 -1.22857e-23)
(0.192348 0.0193322 -7.78022e-22)
(0.208712 0.0165586 -4.39693e-24)
(0.221577 0.0127061 4.95277e-22)
(0.23044 0.00801105 7.52383e-23)
(0.234955 0.00277619 0)
(0.234946 -0.00264645 0)
(0.230414 -0.007892 1.38579e-24)
(0.221535 -0.012607 -2.32093e-22)
(0.208655 -0.0164858 0)
(0.192278 -0.0192886 0)
(0.173048 -0.0208691 1.25137e-23)
(0.151731 -0.0211732 -1.21551e-23)
(0.129191 -0.0202502 7.72344e-22)
(0.106363 -0.0182318 -8.19978e-22)
(0.0842053 -0.0153283 1.11234e-23)
(0.0636721 -0.011853 -1.03504e-23)
(0.0454289 -0.00810541 0)
(0.0303348 -0.004637 -6.22644e-22)
(0.0188671 -0.00214189 -2.07023e-23)
(0.00762767 8.62975e-05 -1.43321e-21)
(0.0103683 -8.76908e-06 -1.53933e-21)
(0.0237723 0.00252294 2.35854e-22)
(0.0361782 0.00504697 7.19998e-22)
(0.0525958 0.00858776 6.58916e-22)
(0.0719278 0.012222 -1.10533e-23)
(0.0933104 0.0155263 1.12621e-23)
(0.116092 0.0182349 -9.08923e-23)
(0.139308 0.0200646 -7.56666e-22)
(0.162039 0.0208365 1.60043e-21)
(0.183393 0.0204384 -1.13307e-23)
(0.202556 0.0188324 1.15732e-23)
(0.21881 0.016075 2.78003e-22)
(0.231554 0.0123052 -4.48576e-22)
(0.240316 0.00774736 -7.60002e-23)
(0.244776 0.00268532 -1.34361e-23)
(0.244769 -0.00255213 -8.08254e-24)
(0.240295 -0.00762517 3.00276e-25)
(0.231518 -0.0122035 -1.90626e-22)
(0.21876 -0.0160005 -2.54697e-22)
(0.202494 -0.0187883 0)
(0.183321 -0.0204242 0)
(0.161961 -0.0208485 0)
(0.139231 -0.0200966 -7.81236e-22)
(0.116021 -0.0182792 1.09117e-23)
(0.0932515 -0.015575 9.97968e-24)
(0.0718843 -0.0122681 -1.94345e-23)
(0.0525683 -0.00862617 9.27895e-24)
(0.0361642 -0.00507551 -1.37569e-23)
(0.023767 -0.00254195 1.83239e-22)
(0.0103676 -3.06087e-06 1.52104e-21)
(0.0136988 8.91202e-05 0)
(0.0293505 0.00289332 -9.93205e-22)
(0.0425739 0.0054321 4.11421e-23)
(0.0602911 0.00903639 -6.67748e-22)
(0.0805919 0.0125333 -5.44574e-22)
(0.102713 0.0156676 9.88597e-24)
(0.126013 0.0181807 -7.45373e-22)
(0.149525 0.0198221 1.47154e-21)
(0.172377 0.0204397 -7.82291e-22)
(0.19372 0.0199398 6.74291e-22)
(0.212787 0.0182953 6.04133e-24)
(0.228905 0.0155673 -2.79162e-22)
(0.241509 0.01189 2.17731e-22)
(0.250162 0.00747644 -6.42836e-23)
(0.254561 0.0025921 1.38966e-23)
(0.254555 -0.002456 1.46305e-23)
(0.250143 -0.00735156 1.14409e-24)
(0.241478 -0.0117861 1.90528e-22)
(0.228862 -0.0154913 2.52077e-22)
(0.212732 -0.0182507 4.16041e-24)
(0.193655 -0.0199263 1.04214e-23)
(0.172306 -0.0204539 -1.01606e-23)
(0.149453 -0.0198577 6.29103e-22)
(0.125945 -0.0182299 0)
(0.102655 -0.0157223 -5.58696e-22)
(0.0805471 -0.012586 0)
(0.0602617 -0.00908146 4.95022e-22)
(0.0425582 -0.00546664 6.89927e-22)
(0.0293442 -0.00291715 -1.73866e-22)
(0.0136979 -0.000104444 -2.03448e-21)
(0.0176656 0.000195165 -2.37027e-21)
(0.0356065 0.00322798 7.22725e-22)
(0.0495301 0.00576775 -8.11606e-22)
(0.0685271 0.00941457 0)
(0.0896809 0.0127482 1.02564e-21)
(0.11245 0.0157157 -5.52606e-22)
(0.136178 0.0180378 -1.97794e-23)
(0.159909 0.019504 -5.87015e-23)
(0.182819 0.0199828 0)
(0.204103 0.0193969 -6.88936e-22)
(0.22304 0.0177282 9.77244e-24)
(0.238997 0.0150412 -3.44084e-24)
(0.251448 0.0114648 4.70767e-24)
(0.259982 0.00720075 4.27931e-24)
(0.264317 0.00249736 -1.25424e-23)
(0.264313 -0.00235885 -6.6022e-24)
(0.259967 -0.00707364 -4.57679e-23)
(0.251423 -0.0113589 -1.02963e-24)
(0.238961 -0.0149639 0)
(0.222992 -0.0176831 0)
(0.204046 -0.0193841 0)
(0.182754 -0.0199989 0)
(0.159841 -0.0195429 -6.46641e-22)
(0.136113 -0.0180918 8.94772e-24)
(0.112392 -0.0157763 5.77365e-22)
(0.0896355 -0.0128076 -7.39089e-24)
(0.0684961 -0.00946664 -5.09386e-22)
(0.0495127 -0.00580883 4.09481e-24)
(0.0355991 -0.00325731 6.08705e-22)
(0.0176643 -0.000214649 4.48654e-21)
(0.0223054 0.000305893 2.50623e-21)
(0.0425316 0.0035193 6.15746e-24)
(0.0570403 0.00605407 9.93234e-22)
(0.0772863 0.00971873 0)
(0.099169 0.0128697 -4.8891e-22)
(0.122499 0.0156774 5.64356e-22)
(0.146568 0.0178145 5.38556e-22)
(0.170444 0.0191194 -5.57597e-23)
(0.193355 0.0194745 -5.87295e-22)
(0.214538 0.0188177 -5.74827e-22)
(0.233314 0.0171379 5.0679e-24)
(0.249091 0.0145019 7.74692e-25)
(0.261374 0.011033 4.33259e-24)
(0.269782 0.00692243 1.13177e-22)
(0.274051 0.00240179 1.25749e-23)
(0.274047 -0.00226139 0)
(0.269771 -0.00679352 4.77273e-23)
(0.261355 -0.0109257 -9.30658e-25)
(0.249061 -0.0144235 0)
(0.233274 -0.0170924 0)
(0.214488 -0.0188054 8.56731e-24)
(0.193298 -0.0194922 -5.30959e-22)
(0.170382 -0.0191614 -5.10741e-22)
(0.146506 -0.0178729 -4.64576e-22)
(0.122443 -0.0157438 -5.58836e-25)
(0.0991236 -0.0129359 3.65332e-22)
(0.0772541 -0.00977803 2.3487e-22)
(0.0570214 -0.00610217 -7.78963e-24)
(0.0425232 -0.00355478 2.19903e-22)
(0.0223039 -0.000330228 -5.15618e-21)
(0.0276456 0.000417856 0)
(0.0501097 0.00376243 0)
(0.065096 0.00629226 -1.03531e-21)
(0.086547 0.00994639 4.73723e-24)
(0.10903 0.012903 -4.05502e-22)
(0.132838 0.0155602 4.5514e-22)
(0.157164 0.0175189 -5.55154e-22)
(0.181119 0.0186774 -5.84309e-22)
(0.203979 0.0189231 5.85049e-22)
(0.225021 0.0182095 5.42723e-23)
(0.243609 0.0165302 -4.66265e-22)
(0.259187 0.0139539 0)
(0.271293 0.010598 0)
(0.279568 0.00664329 -5.51961e-23)
(0.283767 0.00230601 0)
(0.283764 -0.00216421 1.92437e-25)
(0.27956 -0.00651303 -1.91945e-25)
(0.271278 -0.0104894 1.28293e-22)
(0.259164 -0.0138746 0)
(0.243577 -0.0164842 0)
(0.224979 -0.0181975 4.61817e-22)
(0.203929 -0.0189422 5.20629e-22)
(0.181063 -0.018722 5.10008e-22)
(0.157107 -0.0175814 4.80173e-22)
(0.132785 -0.0156321 1.25715e-23)
(0.108985 -0.0129759 -3.80441e-22)
(0.086514 -0.0100131 -3.31642e-22)
(0.0650758 -0.00634775 -1.0848e-21)
(0.0501003 -0.00380464 2.34581e-22)
(0.0276436 -0.000447734 2.80177e-21)
(0.0337032 0.000527845 0)
(0.0583188 0.00395507 0)
(0.0736868 0.00648393 -1.30027e-21)
(0.0962838 0.0100964 2.28927e-23)
(0.119238 0.0128548 7.7314e-22)
(0.143449 0.0153715 -4.55566e-22)
(0.167948 0.0171594 -4.26355e-22)
(0.19192 0.0181863 4.71862e-22)
(0.214682 0.0183362 0)
(0.235548 0.0175788 5.1468e-22)
(0.253924 0.0159104 9.16677e-22)
(0.269289 0.0134012 6.35586e-25)
(0.281207 0.0101623 3.66328e-24)
(0.289344 0.0063649 -9.71899e-25)
(0.293471 0.00221053 0)
(0.293469 -0.0020678 0)
(0.289339 -0.00623372 7.57073e-25)
(0.281197 -0.0100529 -2.45167e-22)
(0.269272 -0.0133211 1.52396e-22)
(0.2539 -0.0158641 3.75782e-22)
(0.235514 -0.0175671 -4.51204e-22)
(0.214639 -0.0183565 -6.81237e-24)
(0.191871 -0.0182333 -4.04098e-22)
(0.167896 -0.0172256 5.85239e-24)
(0.143399 -0.0154486 3.09522e-22)
(0.119194 -0.0129341 -5.03873e-24)
(0.0962505 -0.0101704 8.70065e-23)
(0.0736657 -0.00654708 -1.18076e-22)
(0.0583085 -0.00400454 -1.12733e-21)
(0.0337008 -0.00056393 0)
(0.0404857 0.000633054 0)
(0.0671328 0.00409719 1.56883e-21)
(0.0828002 0.00663072 1.32755e-21)
(0.106468 0.0101689 -2.19493e-23)
(0.129768 0.012733 -7.34937e-22)
(0.154312 0.0151188 3.13252e-22)
(0.178906 0.0167442 4.67851e-23)
(0.202839 0.0176543 -4.85048e-22)
(0.225457 0.0177209 1.06308e-25)
(0.246118 0.0169317 4.85565e-25)
(0.26426 0.0152832 -4.27852e-22)
(0.279397 0.0128472 1.6604e-22)
(0.291119 0.00972837 1.32873e-22)
(0.299115 0.00608862 -8.95543e-25)
(0.303167 0.00211579 0)
(0.303166 -0.00197259 0)
(0.299113 -0.00595692 6.77219e-25)
(0.291114 -0.00961835 1.15377e-22)
(0.279387 -0.0127666 -1.53667e-22)
(0.264243 -0.0152366 -3.78281e-22)
(0.246092 -0.0169201 0)
(0.225422 -0.0177421 3.75164e-22)
(0.202796 -0.0177032 4.0361e-22)
(0.178859 -0.0168137 1.04866e-23)
(0.154265 -0.0152006 -3.20507e-22)
(0.129726 -0.0128184 0)
(0.106435 -0.0102502 1.08354e-23)
(0.0827783 -0.00670167 1.27301e-21)
(0.0671217 -0.00415434 1.58114e-21)
(0.040483 -0.000675961 -3.62806e-21)
(0.0479916 0.000731182 0)
(0.0765228 0.00419055 -3.41023e-21)
(0.0924208 0.00673405 -1.63391e-21)
(0.117069 0.010166 0)
(0.140597 0.0125462 1.24008e-24)
(0.165407 0.0148093 -6.26693e-23)
(0.19002 0.0162812 4.18991e-23)
(0.213864 0.0170887 0)
(0.236299 0.0170836 0)
(0.256726 0.0162734 3.83962e-22)
(0.274617 0.0146527 1.87664e-22)
(0.289514 0.0122949 -1.70142e-22)
(0.301033 0.00929812 -1.32711e-22)
(0.308883 0.00581558 4.0122e-23)
(0.312859 0.00202218 -4.58323e-24)
(0.31286 -0.00187895 0)
(0.308884 -0.00568377 2.61046e-23)
(0.301033 -0.00918786 0)
(0.28951 -0.012214 -2.28708e-24)
(0.274606 -0.0146058 -1.47618e-22)
(0.256708 -0.0162619 -3.24348e-22)
(0.236272 -0.0171055 -4.66465e-23)
(0.213828 -0.0171393 0)
(0.189979 -0.0163535 0)
(0.165364 -0.0148954 0)
(0.140557 -0.0126374 0)