/*--------------------------------*- C++ -*----------------------------------*\
| =========                 |                                                 |
| \\      /  F ield         | OpenFOAM: The Open Source CFD Toolbox           |
|  \\    /   O peration     | Version:  5.x                                   |
|   \\  /    A nd           | Web:      www.OpenFOAM.org                      |
|    \\/     M anipulation  |                                                 |
\*---------------------------------------------------------------------------*/
FoamFile
{
    version     2.0;
    format      ascii;
    class       volScalarField;
    location    "0.025";
    object      p;
}
// * * * * * * * * * * * * * * * * * * * * * * * * * * * * * * * * * * * * * //

dimensions      [0 2 -2 0 0 0 0];

internalField   nonuniform List<scalar> 
7200
(
4.18865e-05
-0.0784943
-0.0263528
0.283504
0.674336
1.01262
1.30159
1.55969
1.76876
1.88379
1.86088
1.67633
1.33403
0.861839
0.305591
-0.279281
-0.833923
-1.3035
-1.64299
-1.82516
-1.84643
-1.73057
-1.52141
-1.26366
-0.975033
-0.636752
-0.245634
0.064495
0.116603
0.0379629
-0.0149011
-0.0896595
0.0373943
0.399053
0.773879
1.07213
1.32401
1.5457
1.71606
1.79503
1.74756
1.55704
1.22974
0.791051
0.280733
-0.253913
-0.762796
-1.19913
-1.52389
-1.71222
-1.75812
-1.67823
-1.5076
-1.2861
-1.03451
-0.736327
-0.361265
0.000689392
0.127774
0.0529504
-0.0336439
-0.0857879
0.120275
0.509442
0.851149
1.10769
1.32394
1.51002
1.64397
1.69153
1.62531
1.43397
1.12498
0.721009
0.256312
-0.228962
-0.692361
-1.09419
-1.40088
-1.59022
-1.65497
-1.60647
-1.47213
-1.28609
-1.07006
-0.813612
-0.471722
-0.0822657
0.123897
0.0717281
-0.0552929
-0.0635721
0.217531
0.611034
0.910775
1.12849
1.31279
1.46722
1.57045
1.59329
1.514
1.32479
1.03352
0.660442
0.235293
-0.207461
-0.631416
-1.00253
-1.29167
-1.47904
-1.55697
-1.53324
-1.42953
-1.27502
-1.09086
-0.873241
-0.573363
-0.179592
0.10166
0.0933983
-0.0779397
-0.0198208
0.326774
0.703819
0.956786
1.1385
1.29325
1.4189
1.49553
1.4982
1.40959
1.22439
0.950468
0.605842
0.216417
-0.188126
-0.576441
-0.919237
-1.19118
-1.37469
-1.46206
-1.45855
-1.38141
-1.25558
-1.10088
-0.919253
-0.666185
-0.288896
0.057876
0.11605
-0.0981033
0.0479492
0.442755
0.784246
0.989193
1.13823
1.26568
1.36535
1.41908
1.40545
1.31056
1.13087
0.873992
0.555912
0.199221
-0.170477
-0.526131
-0.842498
-1.09753
-1.27567
-1.36944
-1.3823
-1.32805
-1.22813
-1.10065
-0.951664
-0.746638
-0.404927
-0.00992702
0.136209
-0.11098
0.140261
0.558749
0.84912
1.00826
1.12829
1.23082
1.30753
1.34198
1.31555
1.21699
1.04396
0.803682
0.510306
0.183573
-0.154381
-0.480138
-0.771902
-1.01044
-1.18205
-1.27961
-1.30536
-1.27041
-1.19341
-1.09077
-0.970743
-0.811534
-0.52096
-0.102266
0.149079
-0.110673
0.255221
0.667662
0.896714
1.01499
1.10957
1.18966
1.2465
1.26507
1.22893
1.12886
0.963326
0.739094
0.468663
0.169337
-0.139698
-0.438101
-0.707004
-0.929603
-1.09381
-1.193
-1.22856
-1.20956
-1.1524
-1.07214
-0.977507
-0.859155
-0.629907
-0.217245
0.148768
-0.090486
0.388385
0.762718
0.926688
1.0107
1.08299
1.14319
1.18326
1.18903
1.14583
1.04601
0.888557
0.679738
0.430607
0.156374
-0.126287
-0.399641
-0.647317
-0.854586
-1.01081
-1.10985
-1.15258
-1.14645
-1.10607
-1.04567
-0.973273
-0.889165
-0.725
-0.350425
0.128586
-0.0433532
0.532845
0.838103
0.939919
0.996772
1.04942
1.0924
1.11866
1.11441
1.06643
0.968264
0.819248
0.625167
0.395798
0.144559
-0.11402
-0.364418
-0.592393
-0.784995
-0.932863
-1.03035
-1.07798
-1.08196
-1.05543
-1.01222
-0.95942
-0.902446
-0.800429
-0.494903
0.0814665
0.0376441
0.679558
0.889566
0.938285
0.9745
1.00975
1.03829
1.05352
1.04169
0.990817
0.895417
0.755024
0.574978
0.363937
0.133783
-0.102788
-0.332134
-0.541833
-0.720458
-0.85977
-0.954585
-1.00521
-1.01688
-1.00144
-0.972666
-0.937239
-0.900878
-0.85195
-0.641647
0.000487135
0.158702
0.817927
0.914876
0.924342
0.944994
0.964862
0.981802
0.988522
0.971219
0.919044
0.827258
0.695535
0.528807
0.334755
0.123948
-0.0924912
-0.302518
-0.495273
-0.660626
-0.791326
-0.882607
-0.934648
-0.951902
-0.945052
-0.927907
-0.90784
-0.887017
-0.877334
-0.780065
-0.120554
0.324725
0.936574
0.914076
0.900937
0.909144
0.915698
0.923843
0.924266
0.903301
0.851111
0.763571
0.640448
0.48632
0.30801
0.114966
-0.0830427
-0.275332
-0.452381
-0.605172
-0.727314
-0.81442
-0.866584
-0.887622
-0.887166
-0.878861
-0.872106
-0.863709
-0.876624
-0.898783
-0.286569
0.538818
1.02424
0.889502
0.870818
0.867635
0.863227
0.865235
0.861255
0.838151
0.786978
0.704135
0.589457
0.447216
0.283487
0.106759
-0.0743645
-0.25036
-0.412858
-0.553789
-0.667519
-0.749986
-0.801234
-0.824538
-0.828596
-0.826492
-0.830715
-0.833698
-0.852155
-0.986544
-0.500672
0.801894
1.07071
0.845552
0.836278
0.821015
0.808461
0.806703
0.7999
0.775926
0.726578
0.64873
0.542271
0.411218
0.260991
0.0992578
-0.0663869
-0.227407
-0.37643
-0.506193
-0.611724
-0.689243
-0.738758
-0.763058
-0.770062
-0.771807
-0.784209
-0.799274
-0.808323
-1.03314
-0.763782
1.11244
1.06771
0.788251
0.798903
0.769803
0.752424
0.748859
0.740534
0.716729
0.66982
0.597139
0.498621
0.378076
0.240345
0.0923985
-0.0590477
-0.206299
-0.342848
-0.462116
-0.559715
-0.632099
-0.679258
-0.703515
-0.712172
-0.715823
-0.733101
-0.762016
-0.751147
-1.03029
-1.07439
1.46648
1.00962
0.724637
0.759426
0.714602
0.696119
0.692198
0.683421
0.660615
0.616592
0.549149
0.458256
0.347561
0.221392
0.086125
-0.0522912
-0.186879
-0.311885
-0.421311
-0.511283
-0.57845
-0.622792
-0.646172
-0.655419
-0.659536
-0.677986
-0.722652
-0.68766
-0.972368
-1.42852
1.85771
0.893982
0.662058
0.717721
0.656198
0.640469
0.637104
0.628766
0.607603
0.566773
0.504554
0.420944
0.319465
0.203989
0.0803863
-0.0460674
-0.169006
-0.283336
-0.383548
-0.466228
-0.528175
-0.569382
-0.591233
-0.600182
-0.603867
-0.619646
-0.68105
-0.625203
-0.856902
-1.81987
2.27784
0.721692
0.607455
0.67293
0.595633
0.586267
0.583862
0.576724
0.557675
0.520228
0.463155
0.386466
0.293596
0.188005
0.0751364
-0.0403313
-0.15255
-0.25701
-0.348612
-0.424353
-0.481146
-0.51901
-0.538853
-0.546744
-0.549604
-0.559116
-0.636349
-0.570712
-0.68479
-2.24016
2.7171
0.496954
0.56671
0.623692
0.534218
0.534123
0.532679
0.527406
0.510787
0.476818
0.424762
0.354621
0.26978
0.173324
0.0703339
-0.0350423
-0.137397
-0.232737
-0.316305
-0.385472
-0.437226
-0.471637
-0.489144
-0.495311
-0.497352
-0.497703
-0.58718
-0.530064
-0.460225
-2.67958
3.16479
0.226904
0.544138
0.568442
0.473501
0.484427
0.48371
0.480884
0.466869
0.4364
0.389191
0.325221
0.24786
0.15984
0.0659412
-0.0301641
-0.12344
-0.210358
-0.286443
-0.349405
-0.396277
-0.427197
-0.442179
-0.446037
-0.447498
-0.43695
-0.531974
-0.50757
-0.190335
-3.12746
3.60995
-0.0789849
0.542167
0.505729
0.415176
0.437334
0.437085
0.437191
0.425836
0.398828
0.356266
0.298093
0.227687
0.147454
0.0619243
-0.0256635
-0.110585
-0.18973
-0.258852
-0.315982
-0.35816
-0.385608
-0.397993
-0.39905
-0.400196
-0.378547
-0.469277
-0.505655
0.115415
-3.57281
4.04199
-0.409661
0.561235
0.434517
0.36096
0.392776
0.392927
0.396318
0.387588
0.36396
0.325823
0.273073
0.20913
0.13608
0.0582523
-0.0215106
-0.0987434
-0.17072
-0.233374
-0.28504
-0.322735
-0.346775
-0.35658
-0.354474
-0.355372
-0.324208
-0.398048
-0.524751
0.445978
-4.00504
4.45122
-0.753339
0.599897
0.354416
0.312441
0.350492
0.351373
0.358221
0.352018
0.331649
0.297701
0.250011
0.192065
0.125636
0.0548969
-0.0176782
-0.0878366
-0.153208
-0.209861
-0.256426
-0.289863
-0.310597
-0.317898
-0.312442
-0.312766
-0.275516
-0.317893
-0.563413
0.789573
-4.41443
4.82929
-1.09832
0.65512
0.26582
0.270934
0.310091
0.312571
0.322813
0.319017
0.301755
0.271753
0.228768
0.176379
0.116049
0.0518327
-0.0141417
-0.077792
-0.137082
-0.188175
-0.229993
-0.259407
-0.27697
-0.281866
-0.273108
-0.271982
-0.233784
-0.2292
-0.618606
1.13451
-4.79265
5.16954
-1.43376
0.722707
0.169931
0.237356
0.271115
0.276686
0.289973
0.288475
0.274135
0.247836
0.209212
0.161969
0.107252
0.0490362
-0.0108785
-0.068543
-0.122238
-0.168186
-0.205603
-0.231232
-0.245791
-0.248366
-0.236637
-0.232562
-0.199924
-0.13317
-0.68613
1.46993
-5.13301
5.46709
-1.7502
0.797792
0.068689
0.212142
0.233118
0.24388
0.259545
0.260287
0.248652
0.225819
0.191222
0.148739
0.0991835
0.0464861
-0.0078681
-0.0600289
-0.108584
-0.149775
-0.183127
-0.205205
-0.216962
-0.21725
-0.203193
-0.194059
-0.17437
-0.031737
-0.761118
1.78639
-5.43064
5.7189
-2.04002
0.875345
-0.0353996
0.195213
0.195735
0.214296
0.23135
0.234352
0.225168
0.205575
0.174685
0.136602
0.0917861
0.0441628
-0.0050917
-0.0521937
-0.0960306
-0.13283
-0.162442
-0.181193
-0.190389
-0.188346
-0.172925
-0.156107
-0.157037
0.0725978
-0.838537
2.07628
-5.68249
5.92363
-2.29762
0.950623
-0.139486
0.185995
0.158733
0.188036
0.205196
0.210576
0.203549
0.186989
0.159496
0.125476
0.085008
0.0420485
-0.00253206
-0.0449862
-0.0844988
-0.117247
-0.143435
-0.159067
-0.165986
-0.161469
-0.145941
-0.118475
-0.147352
0.17699
-0.91364
2.33399
-5.8872
6.08143
-2.51941
1.01953
-0.240633
0.183493
0.122047
0.165141
0.180885
0.188869
0.183665
0.169951
0.145555
0.115286
0.0788016
0.0401266
-0.000173364
-0.0383589
-0.0739139
-0.102927
-0.125996
-0.138701
-0.14367
-0.136431
-0.122287
-0.0811008
-0.144317
0.278507
-0.982325
2.55593
-6.04494
6.19371
-2.70367
1.07884
-0.336056
0.186396
0.0857866
0.145571
0.158231
0.169145
0.165388
0.154359
0.132771
0.105964
0.0731225
0.0383822
0.00199893
-0.0322684
-0.0642072
-0.089778
-0.110027
-0.11997
-0.123361
-0.113054
-0.101933
-0.0440988
-0.146622
0.374368
-1.04137
2.74038
-6.15712
6.26284
-2.8503
1.12633
-0.423336
0.193213
0.0502255
0.1292
0.137066
0.151315
0.148597
0.140118
0.121058
0.0974457
0.0679302
0.0368012
0.00399825
-0.0266742
-0.0553151
-0.0777155
-0.0954311
-0.102756
-0.104977
-0.0911818
-0.0847639
-0.00774827
-0.152777
0.462158
-1.08855
2.88725
-6.22608
6.29184
-2.96049
1.16078
-0.500566
0.202402
0.0157645
0.115814
0.117253
0.135289
0.133177
0.12714
0.110336
0.0896718
0.0631872
0.035371
0.00583696
-0.0215392
-0.0471786
-0.0666588
-0.0821203
-0.0869446
-0.0884347
-0.0706851
-0.0705764
0.0275413
-0.161242
0.539971
-1.12262
2.99773
-6.25488
6.28423
-3.0364
1.18185
-0.566436
0.212497
-0.0171146
0.105122
0.0986883
0.120972
0.119019
0.115339
0.10053
0.0825876
0.0588586
0.0340796
0.00752653
-0.0168291
-0.0397428
-0.0565331
-0.0700101
-0.0724298
-0.0736418
-0.0514692
-0.05909
0.0612779
-0.170558
0.606499
-1.14325
3.074
-6.24699
6.24371
-3.08083
1.18994
-0.620253
0.222209
-0.0479019
0.0967672
0.0813031
0.108261
0.106026
0.104638
0.0915716
0.0761421
0.0549125
0.0329162
0.00907762
-0.0125119
-0.0329569
-0.0472684
-0.0590204
-0.0591125
-0.0604983
-0.0334744
-0.0499614
0.0929397
-0.179445
0.661046
-1.15083
3.11884
-6.20616
6.17411
-3.09696
1.18602
-0.661901
0.230497
-0.0761126
0.0903542
0.0650642
0.0970427
0.0941068
0.0949595
0.083396
0.0702879
0.0513194
0.0318706
0.0105001
-0.00855826
-0.0267733
-0.0388
-0.0490746
-0.0469028
-0.0488945
-0.0166743
-0.0428072
0.122028
-0.186871
0.703492
-1.14634
3.13545
-6.13617
6.07916
-3.08811
1.17142
-0.69176
0.236599
-0.101331
0.0854713
0.0499669
0.0871981
0.0831835
0.0862324
0.075944
0.0649808
0.0480518
0.0309334
0.0118032
-0.004941
-0.0211478
-0.0310678
-0.040099
-0.03572
-0.038711
-0.00106953
-0.0372267
0.148114
-0.192086
0.73421
-1.13111
3.12716
-6.04079
5.96253
-3.05761
1.14768
-0.710602
0.240041
-0.123244
0.0817154
0.0360281
0.0786005
0.0731867
0.0783869
0.0691605
0.0601796
0.0450847
0.0300959
0.0129956
-0.00163496
-0.0160388
-0.0240163
-0.0320225
-0.025493
-0.0298208
0.0133191
-0.0328269
0.170868
-0.194631
0.753961
-1.10667
3.09729
-5.92365
5.82765
-3.00868
1.11639
-0.719474
0.240616
-0.141662
0.0787137
0.0232773
0.0711193
0.064057
0.0713556
0.0629954
0.0558455
0.0423946
0.0293498
0.0140853
0.00138309
-0.0114076
-0.0175944
-0.0247762
-0.0161598
-0.0220912
0.0264601
-0.0292434
0.190087
-0.194315
0.763779
-1.07463
3.04905
-5.7882
5.67776
-2.94435
1.07912
-0.719588
0.238339
-0.156521
0.0761409
0.0117473
0.0646228
0.0557433
0.0650735
0.0574024
0.0519422
0.0399602
0.0286876
0.01508
0.0041346
-0.00721774
-0.0117555
-0.0182934
-0.00766647
-0.0153877
0.0383207
-0.0261571
0.205695
-0.191169
0.764861
-1.03656
2.98549
-5.63769
5.51586
-2.86745
1.03733
-0.712226
0.233407
-0.167881
0.0737308
0.00146595
0.0589819
0.048202
0.0594775
0.0523393
0.0484356
0.0377617
0.0281022
0.0159866
0.00663935
-0.00343484
-0.00645664
-0.0125094
3.3416e-05
-0.00957754
0.0488746
-0.0233055
0.217738
-0.185406
0.758472
-0.993917
2.90942
-5.47509
5.34467
-2.78053
0.992308
-0.698665
0.226137
-0.175907
0.0712816
-0.00755078
0.0540734
0.0413951
0.0545068
0.0477677
0.0452937
0.035781
0.0275868
0.016812
0.00891559
-2.6735e-05
-0.00165888
-0.00736202
0.00698083
-0.00453318
0.0581094
-0.0204878
0.226374
-0.177358
0.745868
-0.948033
2.8234
-5.30315
5.16665
-2.68595
0.945212
-0.680115
0.216924
-0.180847
0.0686557
-0.015304
0.0497834
0.0352889
0.0501033
0.0436524
0.0424864
0.0340012
0.0271353
0.0175626
0.0109801
0.00303689
0.00267345
-0.00279177
0.0132124
-0.00013608
0.0660304
-0.0175653
0.231844
-0.167434
0.728244
-0.900065
2.72974
-5.12433
4.98399
-2.58577
0.897023
-0.65769
0.206195
-0.183014
0.065775
-0.0218142
0.0460093
0.029852
0.0462116
0.039961
0.0399852
0.0324072
0.0267416
0.0182441
0.0128484
0.00578455
0.00657297
0.00125789
0.018762
0.00372094
0.0726642
-0.0144562
0.234457
-0.156071
0.706692
-0.851013
2.63052
-4.94083
4.79859
-2.48182
0.848566
-0.632378
0.194378
-0.182751
0.0626129
-0.0271226
0.042662
0.025054
0.0427794
0.0366641
0.0377638
0.0309845
0.0264005
0.0188623
0.0145349
0.00824293
0.0100696
0.00484008
0.0236621
0.00713153
0.0780575
-0.0111286
0.234558
-0.143704
0.68219
-0.801722
2.52754
-4.75455
4.61208
-2.3757
0.800523
-0.605044
0.181873
-0.180421
0.0591841
-0.0312891
0.0396664
0.0208647
0.0397581
0.0337344
0.0357973
0.0297204
0.0261067
0.0194224
0.0160526
0.010437
0.013191
0.00800419
0.0279453
0.010175
0.0822769
-0.0075903
0.232511
-0.130739
0.655585
-0.75289
2.42239
-4.56716
4.42585
-2.26876
0.753445
-0.576422
0.169043
-0.17638
0.055534
-0.0343904
0.0369614
0.0172527
0.037103
0.0311463
0.0340625
0.0286026
0.0258555
0.0199293
0.0174137
0.0123901
0.0159627
0.0107956
0.0316442
0.0129161
0.085405
-0.00387902
0.228678
-0.117537
0.627603
-0.705082
2.31638
-4.38004
4.24103
-2.16213
0.707767
-0.547124
0.156198
-0.170967
0.0517281
-0.0365159
0.0344993
0.0141851
0.0347735
0.0288762
0.0325381
0.0276201
0.0256424
0.0203876
0.0186296
0.0141239
0.0184088
0.0132554
0.0347932
0.0154056
0.0875372
-5.20395e-05
0.223406
-0.104407
0.598852
-0.658747
2.21065
-4.19436
4.05854
-2.05674
0.663819
-0.517651
0.143597
-0.164493
0.0478427
-0.0377639
0.0322447
0.0116273
0.0327329
0.0269018
0.0312043
0.0267627
0.0254635
0.0208017
0.0197107
0.0156583
0.0205518
0.0154205
0.0374276
0.0176815
0.0887769
0.00382243
0.217014
-0.0915998
0.569831
-0.614222
2.10608
-4.01104
3.87911
-1.95331
0.62184
-0.488405
0.131445
-0.157237
0.0439568
-0.0382378
0.0301726
0.00954321
0.0309489
0.0252016
0.0300429
0.0260209
0.0253149
0.0211754
0.0206668
0.0170116
0.0224131
0.0173236
0.0395842
0.019771
0.0892317
0.0076729
0.209789
-0.0793145
0.540943
-0.571752
2.00342
-3.83083
3.70328
-1.85241
0.581991
-0.459697
0.119898
-0.14944
0.0401463
-0.0380417
0.0282665
0.00789545
0.0293932
0.0237557
0.0290373
0.0253857
0.0251934
0.0215125
0.0215069
0.0182008
0.0240131
0.0189932
0.0413009
0.0216918
0.0890095
0.0114304
0.201983
-0.0676971
0.512507
-0.531498
1.9032
-3.65429
3.53144
-1.75446
0.544363
-0.431766
0.109068
-0.141306
0.0364792
-0.0372775
0.0265167
0.00664585
0.0280414
0.0225445
0.0281726
0.024849
0.0250957
0.0218162
0.0222394
0.019241
0.0253714
0.0204539
0.0426163
0.023455
0.0882149
0.0150327
0.193809
-0.0568492
0.484767
-0.49355
1.80583
-3.48181
3.36385
-1.65973
0.508991
-0.404782
0.0990282
-0.133005
0.0330131
-0.0360417
0.0249184
0.00575609
0.0268724
0.0215496
0.0274352
0.0244032
0.0250191
0.0220895
0.0228723
0.0201459
0.0265066
0.0217269
0.0435687
0.0250659
0.0869467
0.0184271
0.185443
-0.0468333
0.457904
-0.457937
1.7116
-3.31368
3.20068
-1.5684
0.475861
-0.378861
0.0898182
-0.124674
0.0297937
-0.0344241
0.0234699
0.00518826
0.0258685
0.0207533
0.026813
0.0240409
0.0249613
0.0223351
0.023413
0.0209279
0.0274366
0.02283
0.0441962
0.0265266
0.0852961
0.0215718
0.177032
-0.0376791
0.432045
-0.424638
1.62068
-3.15004
3.04199
-1.48054
0.444922
-0.354076
0.0814503
-0.11642
0.0268543
-0.0325058
0.0221713
0.00490563
0.0250148
0.0201386
0.0262953
0.0237557
0.02492
0.0225554
0.0238683
0.0215978
0.0281786
0.0237783
0.0445356
0.0278374
0.0833451
0.0244361
0.168687
-0.02939
0.407273
-0.393591
1.53314
-2.99097
2.88777
-1.39616
0.416092
-0.330462
0.0739146
-0.108327
0.0242166
-0.0303587
0.0210236
0.00487308
0.0242988
0.0196894
0.0258727
0.0235412
0.0248935
0.0227526
0.0242448
0.0221655
0.0287487
0.0245843
0.044622
0.0289972
0.0811664
0.0270006
0.160498
-0.0219484
0.383634
-0.364704
1.44901
-2.83645
2.73796
-1.31522
0.389264
-0.308024
0.0671837
-0.100456
0.0218913
-0.0280451
0.0200274
0.00505758
0.0237103
0.0193908
0.025537
0.0233918
0.0248801
0.0229284
0.0245484
0.0226393
0.0291623
0.0252585
0.0444886
0.0300056
0.0788226
0.0292558
0.152528
-0.0153204
0.361142
-0.337863
1.36824
-2.68642
2.59243
-1.23759
0.364315
-0.286748
0.061217
-0.092851
0.0198799
-0.0256183
0.0191826
0.00542873
0.0232404
0.0192284
0.0252809
0.0233021
0.0248785
0.0230845
0.0247848
0.0230266
0.0294338
0.0258097
0.0441657
0.0308624
0.0763671
0.031201
0.144824
-0.00946012
0.339789
-0.312933
1.29073
-2.54074
2.45104
-1.16316
0.341112
-0.266598
0.0559642
-0.0855399
0.0181761
-0.0231226
0.0184881
0.00595886
0.0228821
0.0191893
0.0250985
0.0232671
0.0248877
0.0232222
0.0249591
0.0233337
0.0295764
0.0262452
0.0436811
0.0315687
0.0738442
0.0328429
0.137417
-0.00431338
0.319548
-0.289771
1.21636
-2.39925
2.3136
-1.09174
0.31951
-0.247531
0.0513679
-0.0785405
0.0167673
-0.0205941
0.0179416
0.0066233
0.0226294
0.0192614
0.0249845
0.0232825
0.0249068
0.0233425
0.0250759
0.023566
0.0296023
0.026571
0.0430595
0.0321267
0.0712899
0.0341944
0.130326
0.000179812
0.30038
-0.268227
1.14496
-2.26177
2.17992
-1.02317
0.299361
-0.22949
0.0473669
-0.0718611
0.0156361
-0.0180618
0.0175395
0.00740049
0.0224774
0.0194339
0.0249346
0.0233443
0.0249353
0.0234465
0.0251396
0.0237281
0.0295225
0.0267923
0.0423226
0.03254
0.0687332
0.0352727
0.123559
0.00408272
0.282234
-0.248147
1.07637
-2.12807
2.04977
-0.957233
0.280518
-0.212419
0.0438976
-0.065503
0.0147616
-0.015548
0.0172774
0.00827188
0.0224219
0.0196973
0.0249454
0.0234487
0.0249725
0.0235347
0.025154
0.0238236
0.0293467
0.0269133
0.0414888
0.0328128
0.0661961
0.0360984
0.117117
0.00746014
0.265054
-0.229376
1.0104
-1.99794
1.92292
-0.893742
0.262831
-0.196254
0.0408955
-0.0594627
0.0141209
-0.0130695
0.0171499
0.00922196
0.0224596
0.0200431
0.0250141
0.0235928
0.0250184
0.0236077
0.0251224
0.0238555
0.0290835
0.0269372
0.0405739
0.0329504
0.0636954
0.0366942
0.110998
0.0103771
0.24878
-0.211761
0.946839
-1.87114
1.79915
-0.83249
0.246152
-0.180934
0.038297
-0.0537329
0.0136901
-0.0106383
0.0171513
0.0102382
0.022588
0.0204646
0.0251386
0.0237739
0.0250726
0.0236659
0.0250477
0.0238261
0.0287399
0.026867
0.0395904
0.0329585
0.0612429
0.0370837
0.105194
0.0128974
0.233352
-0.195154
0.885505
-1.74744
1.67823
-0.773278
0.230341
-0.166398
0.0360397
-0.0483046
0.0134451
-0.00826222
0.0172758
0.0113108
0.0228052
0.0209558
0.0253175
0.0239897
0.0251354
0.0237095
0.0249324
0.023737
0.0283221
0.0267045
0.0385481
0.0328428
0.0588462
0.0372906
0.0996947
0.0150834
0.21871
-0.179407
0.826198
-1.62659
1.55994
-0.715914
0.215259
-0.152591
0.0340637
-0.0431672
0.0133625
-0.00594575
0.0175178
0.0124327
0.02311
0.0215123
0.0255501
0.0242386
0.0252069
0.0237386
0.0247784
0.0235891
0.0278344
0.026451
0.0374542
0.0326088
0.0565097
0.037338
0.0944904
0.0169947
0.2048
-0.164384
0.768731
-1.50837
1.44406
-0.66022
0.200774
-0.139462
0.0323122
-0.0383101
0.0134201
-0.00369037
0.0178723
0.0135992
0.023502
0.0221312
0.0258361
0.0245192
0.0252872
0.023753
0.0245873
0.0233828
0.0272802
0.0261069
0.0363134
0.0322614
0.0542347
0.0372476
0.0895696
0.0186877
0.191569
-0.14995
0.712928
-1.39256
1.33039
-0.606039
0.186765
-0.126968
0.0307321
-0.033723
0.0135981
-0.00149512
0.0183354
0.014808
0.0239817
0.0228105
0.0261762
0.0248309
0.025377
0.0237526
0.0243599
0.0231178
0.0266615
0.0256719
0.0351279
0.0318043
0.05202
0.0370389
0.0849216
0.0202151
0.178975
-0.135984
0.658634
-1.27896
1.21877
-0.553239
0.173119
-0.115075
0.0292748
-0.0293967
0.0138789
0.000643123
0.0189045
0.0160592
0.0245505
0.0235496
0.0265712
0.0251733
0.0254766
0.0237372
0.0240967
0.0227931
0.0259789
0.0251446
0.0338979
0.0312402
0.0498624
0.0367291
0.0805368
0.0216248
0.166986
-0.122371
0.605717
-1.16741
1.10908
-0.501727
0.159737
-0.103765
0.027897
-0.0253236
0.0142483
0.00272942
0.0195787
0.0173548
0.025211
0.0243494
0.027023
0.0255466
0.0255867
0.0237063
0.0237978
0.0224074
0.0252318
0.0245226
0.0326212
0.0305698
0.0477565
0.0363319
0.0764072
0.0229596
0.155581
-0.109015
0.554088
-1.05778
1.00123
-0.451461
0.146539
-0.0930311
0.0265622
-0.0214981
0.0146957
0.0047706
0.020359
0.018699
0.0259667
0.0252117
0.0275337
0.0259516
0.025708
0.0236594
0.0234627
0.0219585
0.0244186
0.0238023
0.0312937
0.0297919
0.0456954
0.0358576
0.0725266
0.0242552
0.144755
-0.0958346
0.503705
-0.949978
0.895233
-0.402474
0.13347
-0.0828905
0.0252417
-0.0179168
0.0152147
0.00677516
0.0212487
0.0200977
0.0268224
0.0261398
0.0281065
0.0263894
0.0258413
0.0235959
0.0230904
0.0214434
0.023536
0.0229789
0.0299094
0.0289029
0.0436703
0.035312
0.0688914
0.0255398
0.134524
-0.0827752
0.454603
-0.844027
0.791224
-0.3549
0.120507
-0.0733819
0.0239163
-0.0145788
0.015804
0.00875338
0.022254
0.0215591
0.0277845
0.0271379
0.028745
0.0268616
0.0259877
0.0235151
0.0226795
0.0208589
0.02258
0.0220463
0.0284601
0.0278967
0.0416707
0.0346961
0.0655003
0.0268316
0.124927
-0.0698149
0.406916
-0.740052
0.689505
-0.309015
0.10767
-0.0645729
0.022578
-0.0114855
0.0164676
0.0107175
0.0233838
0.0230933
0.0288607
0.0282118
0.0294535
0.0273705
0.0261482
0.023416
0.022228
0.0202005
0.0215448
0.0209965
0.0269358
0.0267642
0.0396841
0.0340053
0.0623543
0.0281378
0.116031
-0.0569744
0.360923
-0.638359
0.590643
-0.265293
0.0950328
-0.0565635
0.0212323
-0.00863991
0.0172158
0.012682
0.0246504
0.0247123
0.0300606
0.0293684
0.0302374
0.0279187
0.0263241
0.0232977
0.0217335
0.0194633
0.0204239
0.0198203
0.0253244
0.0254929
0.037696
0.0332288
0.0594561
0.0294518
0.107938
-0.0443309
0.317099
-0.539513
0.495585
-0.224471
0.082743
-0.0494867
0.0198994
-0.00604652
0.0180642
0.014662
0.0260675
0.0264282
0.0313936
0.0306142
0.0311013
0.0285087
0.0265164
0.0231594
0.0211936
0.0186426
0.0192106
0.0185081
0.0236137
0.0240687
0.0356908
0.0323504
0.05681
0.0307523
0.100781
-0.0320332
0.276184
-0.444463
0.405775
-0.18755
0.0709839
-0.0434833
0.0186027
-0.00370439
0.0190294
0.0166749
0.027649
0.0282541
0.0328688
0.0319562
0.03205
0.0291431
0.026726
0.0230001
0.020606
0.0177339
0.0178982
0.0170509
0.0217907
0.0224777
0.033651
0.031353
0.0544147
0.0320148
0.0947002
-0.0202671
0.239183
-0.354653
0.323154
-0.155803
0.0598101
-0.0386549
0.0173391
-0.00158026
0.0201432
0.0187705
0.0294359
0.0302333
0.0345209
0.033424
0.0331044
0.0298351
0.0269574
0.0228162
0.0199578
0.0167168
0.0164575
0.0154143
0.019812
0.0206788
0.0315261
0.0302041
0.0522358
0.0332411
0.089798
-0.00908981
0.207371
-0.272024
0.25141
-0.132527
0.0497353
-0.0353869
0.0162594
0.00033756
0.0215457
0.0210518
0.0315608
0.0324711
0.0364519
0.0350923
0.0343234
0.0306181
0.0272238
0.0225961
0.0192175
0.0155337
0.0148147
0.0134968
0.0175725
0.0185385
0.0292122
0.0287609
0.0502595
0.0342759
0.086458
0.000978993
0.184053
-0.200266
0.202982
-0.127874
0.0462183
-0.035812
0.0165975
0.00142871
0.0233867
0.0231325
0.0338522
0.0346336
0.0384319
0.0367086
0.035545
0.0313687
0.0274948
0.0223666
0.0185051
0.0143437
0.0132211
0.0115273
0.0154075
0.0162291
0.0271006
0.026875
0.0491165
0.033881
0.0868305
0.00446326
0.179395
-0.151822
-0.001061
-0.0796903
-0.0276156
0.282307
0.673186
1.01151
1.30052
1.55867
1.76781
1.88295
1.86017
1.67577
1.3336
0.86151
0.305323
-0.279515
-0.834143
-1.30371
-1.64321
-1.82539
-1.84666
-1.73079
-1.52164
-1.26388
-0.975254
-0.636975
-0.245863
0.0642552
0.116357
0.0377212
-0.0160502
-0.0908661
0.0361519
0.397876
0.772742
1.07102
1.32295
1.54469
1.71512
1.7942
1.74686
1.55649
1.22932
0.790727
0.280467
-0.254147
-0.763016
-1.19935
-1.52411
-1.71245
-1.75834
-1.67846
-1.50783
-1.28632
-1.03473
-0.736549
-0.361492
0.000452389
0.127529
0.0527073
-0.0348323
-0.0870012
0.119063
0.508282
0.850024
1.10659
1.32289
1.50903
1.64304
1.69072
1.62463
1.43344
1.12457
0.720692
0.25605
-0.229194
-0.69258
-1.09441
-1.4011
-1.59044
-1.6552
-1.6067
-1.47236
-1.28631
-1.07028
-0.813834
-0.471948
-0.0825001
0.123653
0.0714847
-0.0565091
-0.0647807
0.216348
0.609887
0.909661
1.12741
1.31175
1.46623
1.56954
1.59249
1.51334
1.32428
1.03313
0.660132
0.235034
-0.207692
-0.631634
-1.00274
-1.29188
-1.47927
-1.5572
-1.53347
-1.42976
-1.27525
-1.09108
-0.873463
-0.573588
-0.179825
0.101418
0.0931551
-0.0791678
-0.0210135
0.325616
0.702685
0.955682
1.13742
1.29221
1.41791
1.49463
1.49742
1.40895
1.22389
0.950088
0.60554
0.216163
-0.188353
-0.576656
-0.919449
-1.19139
-1.37492
-1.46229
-1.45878
-1.38164
-1.2558
-1.10111
-0.919475
-0.666409
-0.289128
0.0576362
0.115808
-0.0993304
0.0467754
0.441616
0.783122
0.988096
1.13716
1.26465
1.36437
1.4182
1.40469
1.30995
1.13039
0.873626
0.555619
0.198972
-0.170702
-0.526344
-0.842709
-1.09774
-1.2759
-1.36967
-1.38253
-1.32828
-1.22836
-1.10088
-0.951887
-0.746863
-0.405157
-0.0101648
0.135968
-0.112198
0.139104
0.557624
0.848005
1.00717
1.12723
1.2298
1.30656
1.34111
1.31481
1.2164
1.0435
0.80333
0.510022
0.183329
-0.154602
-0.480348
-0.77211
-1.01066
-1.18227
-1.27984
-1.30559
-1.27065
-1.19364
-1.091
-0.970967
-0.811759
-0.521189
-0.102502
0.148838
-0.111879
0.254077
0.666549
0.89561
1.0139
1.10852
1.18864
1.24555
1.26422
1.22821
1.12829
0.962889
0.738756
0.468389
0.1691
-0.139915
-0.438307
-0.70721
-0.929814
-1.09403
-1.19322
-1.22879
-1.20979
-1.15263
-1.07237
-0.977731
-0.859381
-0.630137
-0.217479
0.148528
-0.0916817
0.38725
0.761614
0.925593
1.00962
1.08194
1.14218
1.18231
1.18819
1.14513
1.04546
0.88814
0.679415
0.430343
0.156144
-0.126498
-0.399844
-0.647519
-0.854794
-1.01103
-1.11008
-1.15281
-1.14668
-1.10631
-1.04589
-0.973498
-0.889391
-0.725229
-0.350658
0.128347
-0.0445422
0.531716
0.837009
0.938833
0.995703
1.04838
1.0914
1.11773
1.11359
1.06575
0.967739
0.81885
0.624858
0.395544
0.144336
-0.114226
-0.364617
-0.592592
-0.7852
-0.933079
-1.03058
-1.07821
-1.08219
-1.05566
-1.01244
-0.959646
-0.902672
-0.800658
-0.495136
0.0812278
0.0364572
0.678437
0.888481
0.937207
0.973436
1.00871
1.03729
1.0526
1.04089
0.990166
0.894916
0.754646
0.574685
0.363694
0.133568
-0.102988
-0.332328
-0.542028
-0.72066
-0.859984
-0.95481
-1.00544
-1.01711
-1.00167
-0.972896
-0.937467
-0.901105
-0.852179
-0.641879
0.000249013
0.157513
0.816816
0.913799
0.923271
0.943935
0.963827
0.980813
0.987616
0.97044
0.918418
0.826782
0.695177
0.528529
0.334522
0.12374
-0.0926855
-0.302708
-0.495464
-0.660824
-0.791536
-0.88283
-0.93488
-0.952138
-0.945287
-0.928139
-0.908069
-0.887245
-0.877563
-0.780297
-0.120792
0.323531
0.935475
0.913007
0.899872
0.90809
0.914669
0.922864
0.923377
0.902545
0.850511
0.76312
0.640111
0.486057
0.307789
0.114767
-0.0832308
-0.275517
-0.452568
-0.605366
-0.727521
-0.81464
-0.866815
-0.887858
-0.887402
-0.879094
-0.872336
-0.863938
-0.876854
-0.899015
-0.286807
0.537619
1.02315
0.888439
0.869756
0.866585
0.862204
0.864267
0.860384
0.83742
0.786405
0.703709
0.58914
0.446968
0.283277
0.106568
-0.0745461
-0.250539
-0.41304
-0.55398
-0.667723
-0.750204
-0.801464
-0.824774
-0.828833
-0.826727
-0.830946
-0.833927
-0.852385
-0.986776
-0.500909
0.800689
1.06964
0.844494
0.83522
0.81997
0.807444
0.805747
0.799049
0.775221
0.726034
0.64833
0.541975
0.410985
0.260791
0.099075
-0.0665619
-0.22758
-0.376607
-0.506379
-0.611923
-0.689457
-0.738986
-0.763294
-0.7703
-0.772042
-0.784441
-0.799504
-0.808553
-1.03337
-0.764018
1.11123
1.06666
0.787195
0.797849
0.768763
0.751416
0.747918
0.739705
0.716051
0.669305
0.596764
0.498345
0.377858
0.240157
0.0922242
-0.0592159
-0.206466
-0.34302
-0.462298
-0.55991
-0.632311
-0.679483
-0.703751
-0.71241
-0.71606
-0.733335
-0.762247
-0.751378
-1.03052
-1.07463
1.46527
1.00859
0.723581
0.758374
0.713566
0.695119
0.691274
0.682617
0.659968
0.616108
0.548801
0.458001
0.347358
0.221214
0.0859592
-0.0524525
-0.187041
-0.312052
-0.421488
-0.511474
-0.578658
-0.623016
-0.646406
-0.655657
-0.659774
-0.678221
-0.722884
-0.687891
-0.9726
-1.42876
1.8565
0.892972
0.661
0.716672
0.655168
0.63948
0.636198
0.627989
0.606987
0.56632
0.504232
0.420708
0.319276
0.203822
0.0802289
-0.0462216
-0.169161
-0.283497
-0.383719
-0.466414
-0.528379
-0.569602
-0.591465
-0.600421
-0.604106
-0.619883
-0.681284
-0.625435
-0.857135
-1.82011
2.27664
0.720698
0.606393
0.671885
0.594609
0.58529
0.582977
0.575976
0.557093
0.519807
0.46286
0.38625
0.293421
0.187849
0.0749875
-0.0404784
-0.1527
-0.257166
-0.348778
-0.424534
-0.481344
-0.519227
-0.539084
-0.546983
-0.549844
-0.559354
-0.636583
-0.570944
-0.685023
-2.24039
2.7159
0.495972
0.565643
0.622652
0.533201
0.53316
0.531818
0.52669
0.51024
0.476429
0.424493
0.354424
0.26962
0.173178
0.0701934
-0.0351825
-0.13754
-0.232886
-0.316466
-0.385647
-0.43742
-0.47185
-0.489373
-0.495549
-0.497592
-0.497942
-0.587416
-0.530298
-0.460458
-2.67982
3.16361
0.225931
0.543066
0.567407
0.472491
0.483481
0.482876
0.480202
0.466358
0.436044
0.388948
0.325043
0.247712
0.159704
0.065809
-0.0302971
-0.123577
-0.210502
-0.286598
-0.349575
-0.396466
-0.427406
-0.442405
-0.446274
-0.447739
-0.437189
-0.532211
-0.507804
-0.190568
-3.12769
3.60879
-0.0799518
0.541091
0.504701
0.414176
0.436408
0.43628
0.436545
0.425363
0.398506
0.356049
0.297933
0.227553
0.147329
0.0618003
-0.0257895
-0.110716
-0.189868
-0.259001
-0.316147
-0.358343
-0.385812
-0.398215
-0.399285
-0.400436
-0.378788
-0.469514
-0.505889
0.115181
-3.57305
4.04085
-0.410627
0.560156
0.433498
0.359971
0.391872
0.392155