/*--------------------------------*- C++ -*----------------------------------*\
| =========                 |                                                 |
| \\      /  F ield         | OpenFOAM: The Open Source CFD Toolbox           |
|  \\    /   O peration     | Version:  5.x                                   |
|   \\  /    A nd           | Web:      www.OpenFOAM.org                      |
|    \\/     M anipulation  |                                                 |
\*---------------------------------------------------------------------------*/
FoamFile
{
    version     2.0;
    format      ascii;
    class       surfaceScalarField;
    location    "0.025";
    object      phi;
}
// * * * * * * * * * * * * * * * * * * * * * * * * * * * * * * * * * * * * * //

dimensions      [0 3 -1 0 0 0 0];

internalField   nonuniform List<scalar> 
14230
(
5.21307e-16
-2.12897e-16
-1.68997e-15
2.2113e-15
-1.27022e-14
1.10123e-14
-2.56669e-14
1.29648e-14
-2.4907e-14
-7.5969e-16
9.44612e-15
-3.4353e-14
9.98392e-14
-9.03929e-14
2.67365e-13
-1.67525e-13
5.23232e-13
-2.55867e-13
8.59044e-13
-3.35811e-13
1.24332e-12
-3.84279e-13
1.62667e-12
-3.8335e-13
1.95293e-12
-3.26262e-13
2.17154e-12
-2.18606e-13
2.2479e-12
-7.63595e-14
2.16989e-12
7.8011e-14
1.95007e-12
2.19817e-13
1.62331e-12
3.26759e-13
1.24019e-12
3.83117e-13
8.56655e-13
3.83536e-13
5.21756e-13
3.34899e-13
2.66661e-13
2.55095e-13
9.9608e-14
1.67053e-13
9.40669e-15
9.02012e-14
-2.49107e-14
3.43173e-14
-2.56745e-14
7.637e-16
-1.27076e-14
-1.29669e-14
-1.68966e-15
-1.10179e-14
5.22448e-16
-2.21205e-15
2.10832e-16
3.11633e-16
-8.5085e-17
6.22464e-16
-9.4536e-15
1.15799e-14
-3.31808e-14
3.47396e-14
-5.01513e-14
2.99354e-14
-1.30169e-14
-3.78939e-14
1.39255e-13
-1.86625e-13
4.65837e-13
-4.16974e-13
1.01163e-12
-7.1332e-13
1.78831e-12
-1.03255e-12
2.75637e-12
-1.30387e-12
3.82322e-12
-1.45113e-12
4.85942e-12
-1.41955e-12
5.72544e-12
-1.19229e-12
6.29927e-12
-7.92434e-13
6.49867e-12
-2.75762e-13
6.29503e-12
2.81652e-13
5.718e-12
7.96852e-13
4.85047e-12
1.19428e-12
3.8146e-12
1.41899e-12
2.74945e-12
1.44868e-12
1.78371e-12
1.30064e-12
1.00917e-12
1.02964e-12
4.64837e-13
7.11383e-13
1.38981e-13
4.16057e-13
-1.30615e-14
1.8636e-13
-5.0163e-14
3.78652e-14
-3.31892e-14
-2.99406e-14
-9.45507e-15
-3.47519e-14
-8.38014e-17
-1.15833e-14
-6.22682e-16
7.49735e-16
-2.41901e-15
3.75326e-15
-2.23305e-14
3.14914e-14
-5.82097e-14
7.06188e-14
-6.20235e-14
3.37494e-14
5.19549e-14
-1.51872e-13
3.77859e-13
-5.12528e-13
9.97053e-13
-1.03617e-12
1.9613e-12
-1.67757e-12
3.26585e-12
-2.3371e-12
4.83069e-12
-2.8687e-12
6.50602e-12
-3.12647e-12
8.09918e-12
-3.0127e-12
9.41134e-12
-2.50445e-12
1.02729e-11
-1.65397e-12
1.0571e-11
-5.73869e-13
1.02666e-11
5.85992e-13
9.40027e-12
1.66322e-12
8.08563e-12
2.50892e-12
6.4926e-12
3.01202e-12
4.81949e-12
3.12179e-12
3.25799e-12
2.86214e-12
1.95675e-12
2.33088e-12
9.9498e-13
1.67315e-12
3.77172e-13
1.03386e-12
5.18049e-14
5.11728e-13
-6.20523e-14
1.51722e-13
-5.8223e-14
-3.37698e-14
-2.23338e-14
-7.0641e-14
-2.41779e-15
-3.14992e-14
-3.75181e-15
7.11364e-16
-7.6377e-15
1.11336e-14
-4.09078e-14
6.47615e-14
-8.07225e-14
1.10434e-13
-4.23793e-14
-4.59376e-15
1.95281e-13
-3.89532e-13
7.48473e-13
-1.06572e-12
1.70804e-12
-1.99573e-12
3.11802e-12
-3.08755e-12
4.94483e-12
-4.1639e-12
7.06403e-12
-4.98791e-12
9.27575e-12
-5.33819e-12
1.13399e-11
-5.0768e-12
1.30178e-11
-4.18241e-12
1.41105e-11
-2.74668e-12
1.44872e-11
-9.50536e-13
1.41028e-11
9.70381e-13
1.3004e-11
2.76206e-12
1.13226e-11
4.19027e-12
9.25824e-12
5.07639e-12
7.04892e-12
5.33111e-12
4.9337e-12
4.97736e-12
3.11115e-12
4.15343e-12
1.70461e-12
3.07969e-12
7.47176e-13
1.9913e-12
1.94936e-13
1.06397e-12
-4.24479e-14
3.89107e-13
-8.07442e-14
4.52649e-15
-4.09149e-14
-1.1047e-13
-7.63732e-15
-6.47767e-14
-1.11315e-14
-2.57605e-16
-1.68764e-14
2.49334e-14
-6.33742e-14
1.11259e-13
-9.08531e-14
1.37913e-13
2.61328e-14
-1.21579e-13
4.36183e-13
-7.99582e-13
1.26622e-12
-1.89576e-12
2.6048e-12
-3.33431e-12
4.47597e-12
-4.95872e-12
6.80931e-12
-6.49724e-12
9.43648e-12
-7.61508e-12
1.21163e-11
-8.01801e-12
1.45753e-11
-7.53577e-12
1.65507e-11
-6.15782e-12
1.78275e-11
-4.02355e-12
1.82662e-11
-1.38918e-12
1.78187e-11
1.41781e-12
1.65348e-11
4.04604e-12
1.45552e-11
6.16988e-12
1.20954e-11
7.53614e-12
9.41787e-12
8.00863e-12
6.79502e-12
7.60021e-12
4.46664e-12
6.48181e-12
2.59978e-12
4.94656e-12
1.2641e-12
3.32698e-12
4.3553e-13
1.89254e-12
2.59868e-14
7.98651e-13
-9.08894e-14
1.21403e-13
-6.33863e-14
-1.37973e-13
-1.68774e-14
-1.11286e-13
-2.49322e-14
-3.07668e-15
-3.07379e-14
4.69042e-14
-8.57464e-14
1.66268e-13
-7.65547e-14
1.28721e-13
1.61115e-13
-3.59249e-13
7.92304e-13
-1.43077e-12
1.94369e-12
-3.04714e-12
3.69091e-12
-5.08154e-12
6.02835e-12
-7.29616e-12
8.8448e-12
-9.31368e-12
1.19315e-11
-1.07018e-11
1.50154e-11
-1.11019e-11
1.78018e-11
-1.03222e-11
2.00162e-11
-8.37217e-12
2.14377e-11
-5.4451e-12
2.19246e-11
-1.87599e-12
2.14282e-11
1.91414e-12
1.99988e-11
5.47544e-12
1.77796e-11
8.38914e-12
1.49918e-11
1.03239e-11
1.19099e-11
1.10905e-11
8.82753e-12
1.06825e-11
6.0165e-12
9.29284e-12
3.68409e-12
7.27896e-12
1.94054e-12
5.07053e-12
7.91208e-13
3.04187e-12
1.60837e-13
1.42902e-12
-7.66188e-14
3.58859e-13
-8.57658e-14
-1.28826e-13
-3.07411e-14
-1.6631e-13
-4.6906e-14
-8.76724e-15
-4.88033e-14
7.74964e-14
-1.01384e-13
2.18849e-13
-2.31979e-14
5.05345e-14
3.81025e-13
-7.63472e-13
1.28038e-12
-2.33012e-12
2.79147e-12
-4.55823e-12
4.96785e-12
-7.25792e-12
7.76739e-12
-1.00957e-11
1.10375e-11
-1.25838e-11
1.45346e-11
-1.41989e-11
1.7963e-11
-1.45303e-11
2.10173e-11
-1.33765e-11
2.34205e-11
-1.07753e-11
2.49536e-11
-6.97816e-12
2.54771e-11
-2.39949e-12
2.49436e-11
2.44757e-12
2.34022e-11
7.01685e-12
2.09936e-11
1.07978e-11
1.79373e-11
1.33802e-11
1.45104e-11
1.45174e-11
1.10175e-11
1.41755e-11
7.75302e-12
1.25573e-11
4.95908e-12
1.00729e-11
2.7871e-12
7.24251e-12
1.27869e-12
4.55028e-12
3.80541e-13
2.32717e-12
-2.33112e-14
7.62711e-13
-1.01415e-13
-5.07219e-14
-4.88097e-14
-2.18915e-13
-7.75043e-14
-1.82114e-14
-6.90401e-14
1.1475e-13
-1.00618e-13
2.50427e-13
8.61738e-14
-1.36257e-13
7.04652e-13
-1.38195e-12
1.91582e-12
-3.54129e-12
3.81798e-12
-6.46039e-12
6.43504e-12
-9.87498e-12
9.68439e-12
-1.33451e-11
1.33742e-11
-1.62736e-11
1.7233e-11
-1.80577e-11
2.09509e-11
-1.82482e-11
2.42205e-11
-1.66461e-11
2.67695e-11
-1.33243e-11
2.83861e-11
-8.59483e-12
2.89367e-11
-2.95009e-12
2.8376e-11
3.00829e-12
2.67507e-11
8.64216e-12
2.41957e-11
1.33528e-11
2.09236e-11
1.66523e-11
1.72066e-11
1.82344e-11
1.33518e-11
1.80303e-11
9.66759e-12
1.62415e-11
6.42423e-12
1.33163e-11
3.8122e-12
9.85454e-12
1.91338e-12
6.4491e-12
7.03873e-13
3.53668e-12
8.59791e-14
1.38061e-12
-1.00667e-13
1.35925e-13
-6.90513e-14
-2.50531e-13
-1.14768e-13
-3.17879e-14
-8.71802e-14
1.53042e-13
-7.05733e-14
2.3382e-13
2.7033e-13
-4.7716e-13
1.1505e-12
-2.26212e-12
2.71237e-12
-5.10317e-12
5.02939e-12
-8.7774e-12
8.09008e-12
-1.29357e-11
1.177e-11
-1.7025e-11
1.58425e-11
-2.03461e-11
2.00151e-11
-2.22303e-11
2.39721e-11
-2.22053e-11
2.74106e-11
-2.00846e-11
3.00688e-11
-1.59825e-11
3.17455e-11
-1.02716e-11
3.23152e-11
-3.51979e-12
3.17354e-11
3.58808e-12
3.00499e-11
1.03277e-11
2.73855e-11
1.60172e-11
2.39439e-11
2.00939e-11
1.99872e-11
2.21911e-11
1.5818e-11
2.21996e-11
1.1751e-11
2.03085e-11
8.0772e-12
1.699e-11
5.02207e-12
1.29097e-11
2.70902e-12
8.76215e-12
1.14932e-12
5.09638e-12
2.7001e-13
2.25991e-12
-7.06529e-14
4.76588e-13
-8.71986e-14
-2.33986e-13
-1.53075e-13
-4.88914e-14
-9.61386e-14
1.81817e-13
4.78542e-15
1.32896e-13
5.49253e-13
-1.02163e-12
1.73626e-12
-3.44912e-12
3.6819e-12
-7.04881e-12
6.42976e-12
-1.15253e-11
9.92905e-12
-1.6435e-11
1.40147e-11
-2.11107e-11
1.84307e-11
-2.4762e-11
2.28712e-11
-2.66708e-11
2.70212e-11
-2.63552e-11
3.05879e-11
-2.36514e-11
3.33236e-11
-1.87181e-11
3.50407e-11
-1.19887e-11
3.56228e-11
-4.10189e-12
3.50308e-11
4.1801e-12
3.3305e-11
1.20535e-11
3.05627e-11
1.87594e-11
2.69924e-11
2.36643e-11
2.28421e-11
2.63414e-11
1.84044e-11
2.66373e-11
1.39936e-11
2.47193e-11
9.91413e-12
2.10695e-11
6.42079e-12
1.6403e-11
3.67749e-12
1.15055e-11
1.73456e-12
7.03931e-12
5.48751e-13
3.44572e-12
4.65802e-15
1.02068e-12
-9.61681e-14
-1.33159e-13
-1.81872e-13
-6.73704e-14
-8.55389e-14
1.84443e-13
1.44392e-13
-9.70343e-14
9.43482e-13
-1.82072e-12
2.47843e-12
-4.98407e-12
4.8343e-12
-9.40467e-12
8.02113e-12
-1.47121e-11
1.19468e-11
-2.03606e-11
1.64087e-11
-2.55727e-11
2.11281e-11
-2.94814e-11
2.57926e-11
-3.13353e-11
3.00936e-11
-3.06563e-11
3.37528e-11
-2.73106e-11
3.65391e-11
-2.15044e-11
3.82798e-11
-1.37294e-11
3.88687e-11
-4.6908e-12
3.82702e-11
4.77861e-12
3.65209e-11
1.38028e-11
3.3728e-11
2.15523e-11
3.00648e-11
2.73275e-11
2.57628e-11
3.06433e-11
2.11005e-11
3.12996e-11
1.63857e-11
2.94341e-11
1.19299e-11
2.55253e-11
8.01045e-12
2.03224e-11
4.8287e-12
1.46872e-11
2.4761e-12
9.3919e-12
9.42729e-13
4.9791e-12
1.44192e-13
1.81922e-12
-8.55853e-14
9.66183e-14
-1.84532e-13
-8.29254e-14
-4.14068e-14
1.37347e-13
3.69598e-13
-5.08039e-13
1.47344e-12
-2.92456e-12
3.39196e-12
-6.90259e-12
6.17744e-12
-1.21902e-11
9.80368e-12
-1.83383e-11
1.4137e-11
-2.4694e-11
1.89424e-11
-3.0378e-11
2.39249e-11
-3.44639e-11
2.87718e-11
-3.61822e-11
3.31859e-11
-3.50704e-11
3.69062e-11
-3.10308e-11
3.97198e-11
-2.4318e-11
4.14701e-11
-1.54797e-11
4.20611e-11
-5.28183e-12
4.14609e-11
5.37882e-12
3.97023e-11
1.55614e-11
3.6882e-11
2.43726e-11
3.31574e-11
3.1052e-11
2.87417e-11
3.5059e-11
2.38963e-11
3.61451e-11
1.89179e-11
3.44125e-11
1.41183e-11
3.03249e-11
9.79127e-12
2.46495e-11
6.17053e-12
1.83079e-11
3.38886e-12
1.21736e-11
1.47236e-12
6.8956e-12
3.69294e-13
2.92228e-12
-4.14788e-14
5.07391e-13
-1.37486e-13
-8.85247e-14
5.39143e-14
9.56727e-15
7.03505e-13
-1.15763e-12
2.15879e-12
-4.37984e-12
4.48997e-12
-9.23377e-12
7.71714e-12
-1.54173e-11
1.17759e-11
-2.23971e-11
1.64929e-11
-2.94109e-11
2.16063e-11
-3.54915e-11
2.6812e-11
-3.96695e-11
3.18024e-11
-4.11726e-11
3.62953e-11
-3.95634e-11
4.00491e-11
-3.47846e-11
4.28703e-11
-2.71392e-11
4.46181e-11
-1.72275e-11
4.52074e-11
-5.87105e-12
4.46095e-11
5.97671e-12
4.28536e-11
1.73173e-11
4.00258e-11
2.72004e-11
3.62675e-11
3.48104e-11
3.17725e-11
3.9554e-11
2.67828e-11
4.11348e-11
2.15806e-11
3.96147e-11
1.64725e-11
3.5433e-11
1.17618e-11
2.93602e-11
7.70885e-12
2.23609e-11
4.486e-12
1.53964e-11
2.15729e-12
9.22431e-12
7.03055e-13
4.37651e-12
5.38049e-14
1.15664e-12
-9.78235e-15
-7.38989e-14
2.21593e-13
-2.37153e-13
1.17016e-12
-2.10619e-12
3.01786e-12
-6.22755e-12
5.78363e-12
-1.19995e-11
9.45723e-12
-1.90909e-11
1.39349e-11
-2.68748e-11
1.90068e-11
-3.44828e-11
2.43914e-11
-4.08761e-11
2.97813e-11
-4.50593e-11
3.48788e-11
-4.62702e-11
3.94197e-11
-4.41043e-11
4.31828e-11
-3.85477e-11
4.59945e-11
-2.99509e-11
4.77299e-11
-1.89629e-11
4.8314e-11
-6.45514e-12
4.77218e-11
6.56889e-12
4.59789e-11
1.90602e-11
4.31607e-11
3.00186e-11
3.93928e-11
3.85783e-11
3.48494e-11
4.40975e-11
2.97519e-11
4.62323e-11
2.43647e-11
4.50018e-11
1.8985e-11
4.08127e-11
1.39192e-11
3.4426e-11
9.44751e-12
2.68326e-11
5.77867e-12
1.90653e-11
3.01586e-12
1.19871e-11
1.16951e-12
6.22286e-12
2.2143e-13
2.10472e-12
2.36826e-13
-2.51773e-14
4.85872e-13
-6.4768e-13
1.79366e-12
-3.41398e-12
4.06721e-12
-8.50111e-12
7.28205e-12
-1.52144e-11
1.13996e-11
-2.32085e-11
1.62763e-11
-3.17515e-11
2.1671e-11
-3.98776e-11
2.72891e-11
-4.64941e-11
3.28254e-11
-5.05957e-11
3.79965e-11
-5.14412e-11
4.25575e-11
-4.86654e-11
4.63088e-11
-4.2299e-11
4.90964e-11
-3.27384e-11
5.08108e-11
-2.06774e-11
5.1387e-11
-7.03134e-12
5.08033e-11
7.15255e-12
4.90818e-11
2.07818e-11
4.6288e-11
3.28123e-11
4.25318e-11
4.23345e-11
3.79678e-11
4.86615e-11
3.27962e-11
5.14039e-11
2.72618e-11
5.05363e-11
2.1648e-11
4.64265e-11
1.62591e-11
3.98149e-11
1.13885e-11
3.17031e-11
7.27603e-12
2.31777e-11
4.0646e-12
1.51986e-11
1.79276e-12
8.4947e-12
4.85636e-13
3.41185e-12
6.47187e-13
7.52748e-14
8.73377e-13
-1.27218e-12
2.59728e-12
-5.13788e-12
5.32126e-12
-1.12251e-11
8.99228e-12
-1.88854e-11
1.35444e-11
-2.77607e-11
1.87948e-11
-3.70018e-11
2.44774e-11
-4.55602e-11
3.0291e-11
-5.23077e-11
3.59379e-11
-5.62426e-11
4.11512e-11
-5.66545e-11
4.57075e-11
-5.32217e-11
4.94285e-11
-4.602e-11
5.21793e-11
-3.54892e-11
5.38656e-11
-2.23636e-11
5.44315e-11
-7.59729e-12
5.38587e-11
7.72532e-12
5.2166e-11
2.24745e-11
4.94092e-11
3.55691e-11
4.56833e-11
4.60604e-11
4.11237e-11
5.32211e-11
3.59091e-11
5.66184e-11
3.02634e-11
5.6182e-11
2.44534e-11
5.22365e-11
1.87762e-11
4.54922e-11
1.35319e-11
3.69474e-11
8.98513e-12
2.77244e-11
5.31796e-12
1.88657e-11
2.59607e-12
1.12166e-11
8.73045e-13
5.13488e-12
1.27145e-12
2.48782e-13
1.41222e-12
-2.16426e-12
3.60263e-12
-7.32828e-12
6.7921e-12
-1.44146e-11
1.09193e-11
-2.30126e-11
1.58901e-11
-3.27315e-11
2.14842e-11
-4.25959e-11
2.74179e-11
-5.14939e-11
3.33895e-11
-5.82793e-11
3.91127e-11
-6.19659e-11
4.43397e-11
-6.18815e-11
4.8869e-11
-5.77509e-11
5.25434e-11
-4.96944e-11
5.52467e-11
-3.81925e-11
5.68986e-11
-2.40155e-11
5.74523e-11
-8.15103e-12
5.68924e-11
8.28519e-12
5.52345e-11
2.41324e-11
5.25256e-11
3.8278e-11
4.88463e-11
4.97397e-11
4.43135e-11
5.77539e-11
3.90847e-11
6.18472e-11
3.3362e-11
6.19047e-11
2.73933e-11
5.82052e-11
2.14644e-11
5.14211e-11
1.58762e-11
4.25357e-11
1.0911e-11
3.26896e-11
6.78804e-12
2.29887e-11
3.60106e-12
1.44036e-11
1.41177e-12
7.32417e-12
2.1632e-12
5.20017e-13
2.13097e-12
-3.37867e-12
4.82898e-12
-1.00263e-11
8.48942e-12
-1.8075e-11
1.30661e-11
-2.75892e-11
1.84335e-11
-3.80988e-11
2.43375e-11
-4.84999e-11
3.04846e-11
-5.7641e-11
3.65774e-11
-6.43722e-11
4.23447e-11
-6.77331e-11
4.75591e-11
-6.7096e-11
5.20413e-11
-6.22331e-11
5.5655e-11
-5.33081e-11
5.83014e-11
-4.08389e-11
5.99137e-11
-2.56279e-11
6.04536e-11
-8.69091e-12
5.99083e-11
8.83049e-12
5.82905e-11
2.57502e-11
5.56389e-11
4.09296e-11
5.20204e-11
5.33581e-11
4.75344e-11
6.22399e-11
4.23177e-11
6.70639e-11
3.65503e-11
6.76721e-11
3.04596e-11
6.42959e-11
2.43168e-11
5.75639e-11
1.84183e-11
4.84341e-11
1.30566e-11
3.80514e-11
8.48453e-12
2.75608e-11
4.82697e-12
1.80611e-11
2.13036e-12
1.00208e-11
3.37715e-12
9.16408e-13
3.05753e-12
-4.9687e-12
6.2927e-12
-1.32615e-11
1.04205e-11
-2.22028e-11
1.54337e-11
-3.26025e-11
2.11701e-11
-4.38352e-11
2.73474e-11
-5.46772e-11
3.36696e-11
-6.39632e-11
3.98481e-11
-7.05507e-11
4.5629e-11
-7.35141e-11
5.0807e-11
-7.22739e-11
5.52243e-11
-6.66504e-11
5.87647e-11
-5.68485e-11
6.13462e-11
-4.34205e-11
6.29147e-11
-2.71963e-11
6.34393e-11
-9.2155e-12
6.29099e-11
9.35981e-12
6.13367e-11
2.73235e-11
5.87503e-11
4.3516e-11
5.52053e-11
5.69032e-11
5.0784e-11
6.66612e-11
4.56034e-11
7.22445e-11
3.98216e-11
7.34539e-11
3.36446e-11
7.0473e-11
2.7326e-11
6.38825e-11
2.11539e-11
5.46063e-11
1.54231e-11
4.37821e-11
1.04148e-11
3.25691e-11
6.29021e-12
2.21857e-11
3.05673e-12
1.32543e-11
4.96657e-12
1.4673e-12
4.21806e-12
-6.98354e-12
8.00698e-12
-1.70504e-11
1.25905e-11
-2.67863e-11
1.80215e-11
-3.80335e-11
2.40943e-11
-4.9908e-11
3.05062e-11
-6.10891e-11
3.69654e-11
-7.04223e-11
4.31953e-11
-7.67806e-11
4.89617e-11
-7.92805e-11
5.40812e-11
-7.73934e-11
5.84177e-11
-7.09869e-11
6.18739e-11
-6.03047e-11
6.43837e-11
-4.59303e-11
6.59045e-11
-2.87171e-11
6.64126e-11
-9.72364e-12
6.59004e-11
9.87198e-12
6.43755e-11
2.88484e-11
6.18613e-11
4.60302e-11
5.84006e-11
6.03638e-11
5.40601e-11
7.10017e-11
4.89376e-11
7.7367e-11
4.31698e-11
7.92217e-11
3.69406e-11
7.67022e-11
3.04844e-11
7.03387e-11
2.40771e-11
6.10135e-11
1.80098e-11
4.98494e-11
1.25838e-11
3.79951e-11
8.00395e-12
2.67656e-11
4.21704e-12
1.70412e-11
6.98063e-12
2.20299e-12
5.63603e-12
-9.46575e-12
9.98165e-12
-2.1396e-11
1.50021e-11
-3.18067e-11
2.08269e-11
-4.38584e-11
2.71995e-11
-5.62805e-11
3.38061e-11
-6.76957e-11
4.03647e-11
-7.69809e-11
4.66134e-11
-8.30293e-11
5.2339e-11
-8.50061e-11
5.73802e-11
-8.24346e-11
6.16216e-11
-7.52283e-11
6.49842e-11
-6.36673e-11
6.74162e-11
-4.83623e-11
6.88861e-11
-3.01869e-11
6.93768e-11
-1.02143e-11
6.88828e-11
1.0366e-11
6.74093e-11
3.03219e-11
6.49733e-11
4.84663e-11
6.16066e-11
6.37305e-11
5.73611e-11
7.52472e-11
5.23166e-11
8.24115e-11
4.65891e-11
8.49492e-11
4.03404e-11
8.29508e-11
3.3784e-11
7.68951e-11
2.71816e-11
6.76159e-11
2.08143e-11
5.62167e-11
1.49945e-11
4.38149e-11
9.97804e-12
3.17821e-11
5.63476e-12
2.13845e-11
9.46183e-12
3.15356e-12
7.33145e-12
-1.24491e-11
1.22233e-11
-2.62879e-11
1.76563e-11
-3.72397e-11
2.3846e-11
-5.00481e-11
3.04782e-11
-6.29126e-11
3.72391e-11
-7.44566e-11
4.38606e-11
-8.36024e-11
5.00971e-11
-8.92658e-11
5.57576e-11
-9.06666e-11
6.07024e-11
-8.73794e-11
6.48362e-11
-7.93621e-11
6.80966e-11
-6.69277e-11
7.04459e-11
-5.07116e-11
7.18621e-11
-3.16032e-11
7.23345e-11
-1.06867e-11
7.18594e-11
1.0841e-11
7.04402e-11
3.17411e-11
6.80875e-11
5.0819e-11
6.48231e-11
6.69949e-11
6.06854e-11
7.93849e-11
5.57371e-11
8.73599e-11
5.00742e-11
9.06121e-11
4.38371e-11
8.91879e-11
3.72171e-11
8.3515e-11
3.04598e-11
7.43732e-11
2.38325e-11
6.28439e-11
1.76479e-11
4.99996e-11
1.22191e-11
3.72109e-11
7.3299e-12
2.62737e-11
1.24439e-11
4.34783e-12
9.32027e-12
-1.59567e-11
1.47355e-11
-3.17031e-11
2.05521e-11
-4.30563e-11
2.70733e-11
-5.65693e-11
3.39224e-11
-6.97618e-11
4.07975e-11
-8.13317e-11
4.74465e-11
-9.02515e-11
5.36417e-11
-9.54609e-11
5.92146e-11
-9.62396e-11
6.40468e-11
-9.22115e-11
6.80615e-11
-8.33768e-11
7.12125e-11
-7.00787e-11
7.34745e-11
-5.29736e-11
7.48348e-11
-3.29635e-11
7.52882e-11
-1.114e-11
7.48328e-11
1.12964e-11
7.34701e-11
3.31038e-11
7.12051e-11
5.3084e-11
6.80505e-11
7.01494e-11
6.40319e-11
8.34035e-11
5.91961e-11
9.21957e-11
5.36204e-11
9.61878e-11
4.7424e-11
9.53843e-11
4.07759e-11
9.01632e-11
3.39038e-11
8.12453e-11
2.70591e-11
6.96886e-11
2.05429e-11
5.65157e-11
1.47306e-11
4.30231e-11
9.31842e-12
3.16859e-11
1.595e-11
5.81231e-12
1.16141e-11
-2.00002e-11
1.75189e-11
-3.76078e-11
2.3687e-11
-4.92244e-11
3.05019e-11
-6.33843e-11
3.75239e-11
-7.67837e-11
4.44736e-11
-8.82814e-11
5.11163e-11
-9.68941e-11
5.72428e-11
-1.01587e-10
6.27076e-11
-1.01704e-10
6.74122e-11
-9.69162e-11
7.12979e-11
-8.72625e-11
7.4333e-11
-7.31138e-11
7.65039e-11
-5.51446e-11
7.78064e-11
-3.4266e-11
7.82401e-11
-1.15737e-11
7.7805e-11
1.17314e-11
7.65007e-11
3.44081e-11
7.43273e-11
5.52574e-11
7.12889e-11
7.31878e-11
6.73995e-11
8.72929e-11
6.26912e-11
9.6904e-11
5.72233e-11
1.01656e-10
5.10951e-11
1.01512e-10
4.44526e-11
9.68056e-11
3.75051e-11
8.81928e-11
3.04872e-11
7.67065e-11
2.36771e-11
6.33258e-11
1.75135e-11
4.91868e-11
1.1612e-11
3.75874e-11
1.99918e-11
7.57023e-12
1.42204e-11
-2.45793e-11
2.0572e-11
-4.39594e-11
2.70568e-11
-5.57092e-11
3.41242e-11
-7.04516e-11
4.1274e-11
-8.39336e-11
4.82602e-11
-9.52676e-11
5.48641e-11
-1.03498e-10
6.08964e-11
-1.0762e-10
6.62342e-11
-1.07042e-10
7.07979e-11
-1.0148e-10
7.45456e-11
-9.10101e-11
7.74591e-11
-7.60274e-11
7.95357e-11
-5.72212e-11
8.07786e-11
-3.55089e-11
8.11921e-11
-1.19872e-11
8.07778e-11
1.21457e-11
7.95337e-11
3.56522e-11
7.74551e-11
5.7336e-11
7.45386e-11
7.61042e-11
7.07875e-11
9.10441e-11
6.622e-11
1.01472e-10
6.08788e-11
1.06997e-10
5.48443e-11
1.07547e-10
4.824e-11
1.0341e-10
4.12554e-11
9.51774e-11
3.41091e-11
8.38529e-11
2.70463e-11
7.03886e-11
2.0566e-11
5.5667e-11
1.42179e-11
4.39355e-11
2.45687e-11
9.64097e-12
1.71421e-11
-2.96814e-11
2.38912e-11
-5.07085e-11
3.06558e-11
-6.24739e-11
3.79312e-11
-7.7727e-11
4.51642e-11
-9.11665e-11
5.21501e-11
-1.02254e-10
5.86845e-11
-1.10032e-10
6.4599e-11
-1.13534e-10
6.97925e-11
-1.12236e-10
7.42032e-11
-1.05891e-10
7.78049e-11
-9.46117e-11
8.05919e-11
-7.88144e-11
8.25713e-11
-5.92005e-11
8.37532e-11
-3.66908e-11
8.41461e-11
-1.23801e-11
8.3753e-11
1.25389e-11
8.25704e-11
3.68348e-11
8.05895e-11
5.93169e-11
7.77999e-11
7.88938e-11
7.41949e-11
9.46491e-11
6.97805e-11
1.05886e-10
6.45834e-11
1.12194e-10
5.86663e-11
1.13464e-10
5.21309e-11
1.09945e-10
4.5146e-11
1.02162e-10
3.7916e-11
9.10829e-11
3.06448e-11
7.76598e-11
2.38847e-11
6.24272e-11
1.71393e-11
5.06808e-11
2.96685e-11
1.20395e-11
2.03787e-11
-3.52834e-11
2.74711e-11
-5.78009e-11
3.44772e-11
-6.948e-11
4.19137e-11
-8.51635e-11
4.9186e-11
-9.84388e-11
5.61365e-11
-1.09204e-10
6.25724e-11
-1.16468e-10
6.83472e-11
-1.19309e-10
7.33807e-11
-1.17269e-10
7.76275e-11
-1.10137e-10
8.1076e-11
-9.80602e-11
8.37322e-11
-8.14706e-11
8.56119e-11
-6.10802e-11
8.67316e-11
-3.78105e-11
8.71035e-11
-1.27521e-11
8.67319e-11
1.29105e-11
8.56121e-11
3.79546e-11
8.37313e-11
6.11977e-11
8.1073e-11
8.15521e-11
7.76214e-11
9.81007e-11
7.33709e-11
1.10137e-10
6.83338e-11
1.17231e-10
6.2556e-11
1.19242e-10
5.61186e-11
1.16383e-10
4.91684e-11
1.09113e-10
4.18985e-11
9.83528e-11
3.44659e-11
8.50924e-11
2.74642e-11
6.94289e-11
2.03756e-11
5.77694e-11
3.52677e-11
1.47763e-11
2.39261e-11
-4.13517e-11
3.13052e-11
-6.518e-11
3.85128e-11
-7.66877e-11
4.60618e-11
-9.27125e-11
5.33312e-11
-1.05708e-10
6.0213e-11
-1.16086e-10
6.65231e-11
-1.22778e-10
7.21382e-11
-1.24924e-10
7.69971e-11
-1.22128e-10
8.10703e-11
-1.14211e-10
8.43594e-11
-1.01349e-10
8.68809e-11
-8.39922e-11
8.86588e-11
-6.28581e-11
8.97152e-11
-3.88669e-11
9.00659e-11
-1.31027e-11
8.97161e-11
1.32603e-11
8.866e-11
3.90107e-11
8.68815e-11
6.29762e-11
8.43582e-11
8.40754e-11
8.10663e-11
1.01393e-10
7.69896e-11
1.14213e-10
7.21269e-11
1.22094e-10
6.65086e-11
1.2486e-10
6.01965e-11
1.22695e-10
5.33145e-11
1.15994e-10
4.60468e-11
1.05621e-10
3.85013e-11
9.2638e-11
3.12979e-11
7.66323e-11
2.39227e-11
6.51446e-11
4.13331e-11
1.78573e-11
2.77776e-11
-4.78447e-11
3.53855e-11
-7.2788e-11
4.27535e-11
-8.40556e-11
5.03655e-11
-1.00325e-10
5.7592e-11
-1.12935e-10
6.43733e-11
-1.22867e-10
7.05322e-11
-1.28937e-10
7.59691e-11
-1.30361e-10
8.06405e-11
-1.26799e-10
8.45311e-11
-1.18101e-10
8.76552e-11
-1.04473e-10
9.00387e-11
-8.63757e-11
9.17129e-11
-6.45323e-11
9.27052e-11
-3.98592e-11
9.30343e-11
-1.34318e-11
9.27065e-11
1.35881e-11
9.1715e-11
4.00022e-11
9.00407e-11
6.46505e-11
8.76558e-11
8.64603e-11
8.45292e-11
1.04519e-10
8.06351e-11
1.18107e-10
7.596e-11
1.26769e-10
7.05197e-11
1.30301e-10
6.43584e-11
1.28856e-10
5.75764e-11
1.22777e-10
5.0351e-11
1.12846e-10
4.27419e-11
1.00247e-10
3.5378e-11
8.39962e-11
2.7774e-11
7.27486e-11
4.78228e-11
2.12842e-11
3.19241e-11
-5.47136e-11
3.97034e-11
-8.05673e-11
4.71891e-11
-9.15412e-11
5.48149e-11
-1.0795e-10
6.19608e-11
-1.20081e-10
6.86118e-11
-1.29518e-10
7.45957e-11
-1.34921e-10
7.98376e-11
-1.35603e-10
8.43095e-11
-1.31271e-10
8.80097e-11
-1.21801e-10
9.09637e-11
-1.07427e-10
9.32062e-11
-8.86182e-11
9.47752e-11
-6.61012e-11
9.57026e-11
-4.07865e-11
9.60099e-11
-1.37392e-11
9.57043e-11
1.38936e-11
9.47782e-11
4.09284e-11
9.32095e-11
6.62192e-11
9.0966e-11
8.87038e-11
8.80097e-11
1.07476e-10
8.43063e-11
1.21811e-10
7.98307e-11
1.31244e-10
7.45852e-11
1.35546e-10
6.85986e-11
1.34843e-10
6.19464e-11
1.29429e-10
5.4801e-11
1.19991e-10
4.71776e-11
1.07871e-10
3.96957e-11
9.14781e-11
3.19204e-11
8.05239e-11
5.46883e-11
2.50549e-11
3.6355e-11
-6.19048e-11
4.42492e-11
-8.84615e-11
5.18089e-11
-9.9101e-11
5.94002e-11
-1.15542e-10
6.64305e-11
-1.27111e-10
7.29229e-11
-1.36011e-10
7.871e-11
-1.40708e-10
8.37415e-11
-1.40635e-10
8.80029e-11
-1.35533e-10
9.15056e-11
-1.25304e-10
9.42851e-11
-1.10207e-10
9.63841e-11
-9.07171e-11
9.78464e-11
-6.75635e-11
9.87082e-11
-4.16484e-11
9.89936e-11
-1.40245e-11
9.87104e-11
1.41767e-11
9.78503e-11
4.17886e-11
9.63886e-11
6.76809e-11
9.4289e-11
9.08034e-11
9.15076e-11
1.10257e-10
8.80019e-11
1.25316e-10
8.37368e-11
1.35509e-10
7.87016e-11
1.40581e-10
7.29115e-11
1.40633e-10
6.64173e-11
1.35923e-10
5.93871e-11
1.27021e-10
5.17978e-11
1.1546e-10
4.42415e-11
9.90344e-11
3.63511e-11
8.84143e-11
6.18759e-11
2.91636e-11
4.10582e-11
-6.93607e-11
4.90125e-11
-9.64158e-11
5.66019e-11
-1.0669e-10
6.4112e-11
-1.23052e-10
7.09942e-11
-1.33993e-10
7.73015e-11
-1.42318e-10
8.28716e-11
-1.46278e-10
8.76787e-11
-1.45442e-10
9.17199e-11
-1.39574e-10
9.50186e-11
-1.28603e-10
9.76197e-11
-1.12808e-10
9.95728e-11
-9.26702e-11
1.00927e-10
-6.8918e-11
1.01723e-10
-4.24441e-11
1.01986e-10
-1.42877e-11
1.01726e-10
1.44373e-11
1.00932e-10
4.25823e-11
9.95785e-11
6.90344e-11
9.76251e-11
9.27567e-11
9.50224e-11
1.1286e-10
9.17209e-11
1.28618e-10
8.76761e-11
1.39554e-10
8.28653e-11
1.45392e-10
7.72919e-11
1.46206e-10
7.09825e-11
1.42232e-10
6.40999e-11
1.33904e-10
5.65912e-11
1.22969e-10
4.90049e-11
1.06621e-10
4.10542e-11
9.63649e-11
6.9328e-11
3.3602e-11
4.60206e-11
-7.70218e-11
5.39825e-11
-1.04378e-10
6.15565e-11
-1.14264e-10
6.89413e-11
-1.30437e-10
7.56455e-11
-1.40697e-10
8.17427e-11
-1.48415e-10
8.70775e-11
-1.51613e-10
9.16473e-11
-1.50011e-10
9.54594e-11
-1.43386e-10
9.85485e-11
-1.31692e-10
1.00968e-10
-1.15227e-10
1.02773e-10
-9.44755e-11
1.04018e-10
-7.01636e-11
1.04748e-10
-4.31733e-11
1.04989e-10
-1.45286e-11
1.04751e-10
1.46753e-11
1.04024e-10
4.33091e-11
1.0278e-10
7.02786e-11
1.00974e-10
9.45619e-11
9.8554e-11
1.1528e-10
9.54623e-11
1.3171e-10
9.16469e-11
1.4337e-10
8.70732e-11
1.49966e-10
8.17351e-11
1.51544e-10
7.56354e-11
1.48332e-10
6.89304e-11
1.40609e-10
6.15464e-11
1.30353e-10
5.3975e-11
1.14192e-10
4.60166e-11
1.04323e-10
7.69853e-11
3.83593e-11
5.12285e-11
-8.48274e-11
5.91477e-11
-1.12297e-10
6.66616e-11
-1.21778e-10
7.38799e-11
-1.37655e-10
8.03784e-11
-1.47196e-10
8.62421e-11
-1.54279e-10
9.13247e-11
-1.56696e-10
9.56458e-11
-1.54333e-10
9.92207e-11
-1.46961e-10
1.02095e-10
-1.34566e-10
1.04329e-10
-1.17461e-10
1.05985e-10
-9.61312e-11
1.0712e-10
-7.12995e-11
1.07783e-10
-4.38356e-11
1.08001e-10
-1.47471e-11
1.07786e-10
1.48906e-11
1.07126e-10
4.39686e-11
1.05992e-10
7.14128e-11
1.04337e-10
9.62172e-11
1.02102e-10
1.17515e-10
9.92254e-11
1.34586e-10
9.56473e-11
1.46948e-10
9.13226e-11
1.5429e-10
8.62364e-11
1.56631e-10
8.037e-11
1.54198e-10
7.38702e-11
1.47109e-10
6.66523e-11
1.3757e-10
5.91405e-11
1.21704e-10
5.12246e-11
1.12239e-10
8.47871e-11
4.34228e-11
5.6668e-11
-9.2717e-11
6.44964e-11
-1.20125e-10
7.1906e-11
-1.29188e-10
7.89198e-11
-1.44669e-10
8.51871e-11
-1.53463e-10
9.07954e-11
-1.59887e-10
9.56109e-11
-1.61511e-10
9.96725e-11
-1.58394e-10
1.03003e-10
-1.50291e-10
1.05658e-10
-1.37221e-10
1.07704e-10
-1.19507e-10
1.09208e-10
-9.76357e-11
1.10234e-10
-7.23248e-11
1.10829e-10
-4.44305e-11
1.11025e-10
-1.49431e-11
1.10832e-10
1.5083e-11
1.1024e-10
4.45606e-11
1.09217e-10
7.24361e-11
1.07713e-10
9.7721e-11
1.05666e-10
1.19562e-10
1.03009e-10
1.37243e-10
9.9676e-11
1.50281e-10
9.56108e-11
1.58356e-10
9.07917e-11
1.6145e-10
8.51804e-11
1.5981e-10
7.89114e-11
1.53378e-10
7.18975e-11
1.44584e-10
6.44896e-11
1.29112e-10
5.66642e-11
1.20065e-10
9.2673e-11
4.87783e-11
6.23247e-11
-1.00631e-10
7.00167e-11
-1.27817e-10
7.7279e-11
-1.3645e-10
8.40538e-11
-1.51443e-10
9.00662e-11
-1.59475e-10
9.5399e-11
-1.6522e-10
9.99336e-11
-1.66046e-10
1.03726e-10
-1.62187e-10
1.06805e-10
-1.5337e-10
1.09237e-10
-1.39653e-10
1.11092e-10
-1.21363e-10
1.12444e-10
-9.89877e-11
1.13358e-10
-7.32389e-11
1.13886e-10
-4.49579e-11
1.14059e-10
-1.51165e-11
1.1389e-10
1.52526e-11
1.13365e-10
4.50847e-11
1.12454e-10
7.33479e-11
1.11103e-10
9.9072e-11
1.09247e-10
1.21418e-10
1.06813e-10
1.39676e-10
1.03731e-10
1.53363e-10
9.99354e-11
1.62152e-10
9.53972e-11
1.65988e-10
9.00612e-11
1.65146e-10
8.40469e-11
1.59392e-10
7.72715e-11
1.5136e-10
7.00105e-11
1.36373e-10
6.23211e-11
1.27754e-10
1.00583e-10
5.44108e-11
6.81843e-11
-1.08511e-10
7.56969e-11
-1.3533e-10
8.27706e-11
-1.43524e-10
8.92751e-11
-1.57948e-10
9.50105e-11
-1.65211e-10
1.00049e-10
-1.70259e-10
1.04291e-10
-1.70287e-10
1.07805e-10
-1.65701e-10
1.10627e-10
-1.56193e-10
1.12832e-10
-1.41857e-10
1.14494e-10
-1.23025e-10
1.15693e-10
-1.00186e-10
1.16495e-10
-7.40412e-11
1.16955e-10
-4.54175e-11
1.17105e-10
-1.52673e-11
1.16959e-10
1.53994e-11
1.16503e-10
4.55407e-11
1.15703e-10
7.41476e-11
1.14506e-10
1.00269e-10
1.12843e-10
1.23081e-10
1.10637e-10
1.41882e-10
1.07812e-10
1.56188e-10
1.04294e-10
1.65669e-10
1.00049e-10
1.70233e-10
9.50074e-11
1.70188e-10
8.92697e-11
1.6513e-10
8.27641e-11
1.57865e-10
7.56913e-11
1.43446e-10
6.8181e-11
1.35264e-10
1.0846e-10
6.03043e-11
7.42327e-11
-1.16302e-10
8.15252e-11
-1.42622e-10
8.83712e-11
-1.5037e-10
9.45775e-11
-1.64154e-10
1.00015e-10
-1.70649e-10
1.04743e-10
-1.74986e-10
1.0868e-10
-1.74225e-10
1.11909e-10
-1.6893e-10
1.14468e-10
-1.58752e-10
1.16442e-10
-1.4383e-10
1.1791e-10
-1.24494e-10
1.18954e-10
-1.0123e-10
1.19644e-10
-7.47312e-11
1.20035e-10
-4.5809e-11
1.20163e-10
-1.53953e-11
1.2004e-10
1.55232e-11
1.19652e-10
4.59286e-11
1.18965e-10
7.48349e-11
1.17922e-10
1.01311e-10
1.16454e-10
1.24549e-10
1.1448e-10
1.43857e-10
1.11917e-10
1.5875e-10
1.08686e-10
1.68901e-10
1.04745e-10
1.74174e-10
1.00014e-10
1.74918e-10
9.45736e-11
1.7057e-10
8.83659e-11
1.64073e-10
8.15203e-11
1.50291e-10
7.42297e-11
1.42555e-10
1.16247e-10
6.64426e-11
8.0456e-11
-1.23949e-10
8.74905e-11
-1.49657e-10
9.40721e-11
-1.56952e-10
9.99551e-11
-1.70037e-10
1.05076e-10
-1.7577e-10
1.09477e-10
-1.79386e-10
1.131e-10
-1.77848e-10
1.16035e-10
-1.71865e-10
1.18328e-10
-1.61045e-10
1.20068e-10
-1.4557e-10
1.2134e-10
-1.25765e-10
1.22228e-10
-1.02118e-10
1.22805e-10
-7.53085e-11
1.23128e-10
-4.61324e-11
1.23234e-10
-1.55005e-11
1.23133e-10
1.5624e-11
1.22813e-10
4.6248e-11
1.22239e-10
7.54091e-11
1.21353e-10
1.02197e-10
1.20081e-10
1.2582e-10
1.1834e-10
1.45598e-10
1.16045e-10
1.61045e-10
1.13107e-10
1.71839e-10
1.09481e-10
1.778e-10
1.05077e-10
1.79322e-10
9.99527e-11
1.75694e-10
9.4068e-11
1.69958e-10
8.74864e-11
1.56873e-10
8.04533e-11
1.49588e-10
1.23891e-10
7.28091e-11
8.68407e-11
-1.31402e-10
9.35819e-11
-1.56398e-10
9.98653e-11
-1.63235e-10
1.05403e-10
-1.75575e-10
1.10189e-10
-1.80557e-10
1.14249e-10
-1.83446e-10
1.17549e-10
-1.81148e-10
1.20184e-10
-1.745e-10
1.22205e-10
-1.63067e-10
1.23709e-10
-1.47074e-10
1.24783e-10
-1.26839e-10
1.25514e-10
-1.02849e-10
1.25979e-10
-7.57726e-11
1.26234e-10
-4.63874e-11
1.26316e-10
-1.55829e-11
1.26238e-10
1.57019e-11
1.25987e-10
4.6499e-11
1.25526e-10
7.58701e-11
1.24797e-10
1.02927e-10
1.23724e-10
1.26893e-10
1.22219e-10
1.47102e-10
1.20196e-10
1.63069e-10
1.17558e-10
1.74477e-10
1.14254e-10
1.81104e-10
1.10191e-10
1.83386e-10
1.05402e-10
1.80484e-10
9.98624e-11