/*--------------------------------*- C++ -*----------------------------------*\
| =========                 |                                                 |
| \\      /  F ield         | OpenFOAM: The Open Source CFD Toolbox           |
|  \\    /   O peration     | Version:  5.x                                   |
|   \\  /    A nd           | Web:      www.OpenFOAM.org                      |
|    \\/     M anipulation  |                                                 |
\*---------------------------------------------------------------------------*/
FoamFile
{
    version     2.0;
    format      ascii;
    class       volVectorField;
    location    "0.025";
    object      U;
}
// * * * * * * * * * * * * * * * * * * * * * * * * * * * * * * * * * * * * * //

dimensions      [0 1 -1 0 0 0 0];

internalField   nonuniform List<vector> 
7200
(
(3.62435e-07 4.97801e-07 0)
(1.75352e-06 2.70281e-06 1.74621e-23)
(-1.19111e-05 -2.52172e-05 -7.24649e-24)
(-5.29172e-05 -9.3582e-05 -3.312e-24)
(-8.67506e-05 -0.000124255 4.25494e-22)
(-5.05522e-05 -4.12759e-05 -1.41149e-21)
(0.000122676 0.000178013 -1.73858e-23)
(0.000506324 0.000521649 1.92895e-23)
(0.00116394 0.000943549 3.31494e-21)
(0.00211253 0.00135719 -5.82637e-23)
(0.00329352 0.00165047 1.9952e-21)
(0.00457243 0.00172113 1.80536e-21)
(0.00576726 0.0015131 1.46166e-21)
(0.00669095 0.00103695 0)
(0.00719289 0.000368816 1.82438e-24)
(0.00719007 -0.000368509 0)
(0.00668326 -0.00103566 4.86527e-24)
(0.00575676 -0.00151034 5.47699e-23)
(0.00456164 -0.00171715 -1.7382e-21)
(0.00328456 -0.00164612 -7.45045e-23)
(0.0021065 -0.00135347 -2.81512e-23)
(0.00116075 -0.000941085 6.50837e-21)
(0.000505113 -0.000520463 -1.19878e-23)
(0.000122412 -0.000177655 -1.99472e-21)
(-5.05673e-05 4.13268e-05 -6.81663e-22)
(-8.67649e-05 0.000124274 -4.06683e-22)
(-5.29354e-05 9.36013e-05 0)
(-1.19138e-05 2.52199e-05 -1.09797e-23)
(1.75658e-06 -2.70441e-06 1.31233e-23)
(3.6214e-07 -4.98306e-07 -1.39562e-24)
(1.41083e-07 2.06895e-06 3.72325e-26)
(-4.01852e-06 -3.98042e-06 -1.42619e-23)
(-4.55819e-05 -0.000114237 -4.45476e-23)
(-0.000132151 -0.000294029 -6.23815e-24)
(-0.000152858 -0.000301201 -6.27927e-22)
(7.9303e-05 3.17423e-05 -6.82326e-23)
(0.000756817 0.000726806 2.17674e-23)
(0.00206504 0.00172296 -3.93478e-21)
(0.00413053 0.00287179 -1.73087e-22)
(0.0069396 0.00393409 2.54103e-21)
(0.0102894 0.00462826 -2.62966e-21)
(0.0138064 0.00471616 -2.68504e-21)
(0.0170225 0.00408174 -4.15752e-21)
(0.0194744 0.00277046 -6.54131e-22)
(0.0207965 0.00098137 6.40055e-23)
(0.0207893 -0.000978906 5.27122e-23)
(0.0194545 -0.00276579 -6.22864e-22)
(0.0169949 -0.00407375 2.11834e-21)
(0.0137772 -0.00470538 1.99711e-22)
(0.0102642 -0.0046166 -2.80396e-21)
(0.00692158 -0.00392389 2.60902e-21)
(0.00412007 -0.00286469 -2.12714e-22)
(0.00206038 -0.00171923 -3.9613e-21)
(0.000755383 -0.000725473 3.01522e-21)
(7.90534e-05 -3.14665e-05 1.05114e-21)
(-0.000152893 0.000301271 1.26383e-21)
(-0.000132177 0.000294089 5.8199e-24)
(-4.55894e-05 0.000114253 4.18208e-24)
(-4.0172e-06 3.97591e-06 -2.06047e-23)
(1.40387e-07 -2.07104e-06 2.09966e-25)
(-8.87636e-07 3.26394e-06 -1.90976e-24)
(-1.74286e-05 -2.74896e-05 8.13258e-26)
(-0.000100193 -0.000228995 -4.98087e-23)
(-0.000214255 -0.000463713 4.10968e-22)
(-0.000137142 -0.000356145 -7.93037e-22)
(0.000431203 0.000292438 2.32511e-21)
(0.00177882 0.00147631 0)
(0.00416229 0.00306924 4.05259e-21)
(0.00771656 0.00481672 -4.85901e-21)
(0.0123493 0.00635257 -2.6469e-21)
(0.0176991 0.00727866 2.46992e-22)
(0.0231846 0.00728008 -1.98647e-23)
(0.0281173 0.00622136 2.00956e-21)
(0.0318367 0.00418987 6.58777e-22)
(0.0338299 0.00147937 -1.67885e-24)
(0.0338193 -0.00147331 -9.91994e-23)
(0.0318074 -0.0041811 6.30815e-22)
(0.028076 -0.00620851 0)
(0.0231399 -0.00726378 4.68079e-21)
(0.0176593 -0.00726131 2.43184e-21)
(0.0123195 -0.00633722 -2.55262e-21)
(0.00769811 -0.00480566 -4.71585e-21)
(0.00415322 -0.00306305 -2.82304e-23)
(0.00177554 -0.00147383 1.55156e-21)
(0.000430436 -0.000291811 1.529e-23)
(-0.00013726 0.000356285 -1.46992e-21)
(-0.000214297 0.000463804 0)
(-0.000100209 0.000229026 -2.25041e-23)
(-1.74292e-05 2.74836e-05 0)
(-8.87012e-07 -3.26812e-06 2.59444e-24)
(-4.1807e-06 2.79464e-06 2.11996e-24)
(-4.32745e-05 -6.94236e-05 0)
(-0.000168818 -0.000355977 9.4207e-23)
(-0.000262315 -0.00058198 7.81735e-23)
(1.99586e-05 -0.000284357 8.13171e-22)
(0.00106763 0.000721549 -1.20118e-21)
(0.00323657 0.00238435 -2.62132e-23)
(0.00681538 0.00450219 -3.81853e-21)
(0.0119007 0.006721 0)
(0.0182902 0.00857794 -3.72174e-23)
(0.0254652 0.00960339 2.54586e-21)
(0.0326708 0.0094486 -2.12504e-21)
(0.0390555 0.00798421 1.58404e-23)
(0.0438227 0.0053399 0)
(0.0463634 0.00188015 4.97334e-23)
(0.0463503 -0.00186934 9.1604e-23)
(0.0437862 -0.00532641 0)
(0.0390033 -0.00796668 1.54104e-23)
(0.0326135 -0.0094277 -2.24475e-21)
(0.0254125 -0.00958164 -2.48575e-21)
(0.0182492 -0.00855864 0)
(0.0118739 -0.00670676 0)
(0.00680112 -0.00449381 3.74716e-21)
(0.00323076 -0.0023807 -1.57312e-21)
(0.00106598 -0.000720482 -1.15758e-21)
(1.96514e-05 0.000284596 7.78522e-22)
(-0.000262386 0.000582097 0)
(-0.000168847 0.000356024 1.35429e-22)
(-4.32799e-05 6.94171e-05 2.70444e-26)
(-4.17962e-06 -2.80166e-06 0)
(-1.15024e-05 -8.03752e-07 4.66823e-24)
(-8.35471e-05 -0.000128956 9.23184e-25)
(-0.000237911 -0.000479387 -1.06626e-24)
(-0.000239741 -0.0006297 6.77823e-23)
(0.000366457 -8.18493e-05 9.20898e-22)
(0.00203291 0.00130347 2.07227e-23)
(0.00515651 0.00341831 -4.92778e-23)
(0.0100201 0.00598133 3.92692e-21)
(0.0166453 0.00855257 0)
(0.0247035 0.0106025 -2.27878e-21)
(0.0335299 0.0116259 3.68405e-23)
(0.0422312 0.0112701 1.48575e-22)
(0.0498396 0.00942694 1.4684e-23)
(0.0554709 0.00626527 1.41256e-24)
(0.0584574 0.00220048 -5.13719e-23)
(0.0584424 -0.0021841 -4.24165e-23)
(0.0554292 -0.00624659 4.82246e-22)
(0.0497793 -0.00940483 0)
(0.0421636 -0.0112453 -1.68664e-23)
(0.0334663 -0.0116008 1.62669e-23)
(0.0246521 -0.0105803 3.52603e-23)
(0.0166101 -0.00853593 -3.32113e-23)
(0.0100001 -0.00597117 -3.79683e-21)
(0.00514751 -0.00341357 -1.52852e-21)
(0.00202995 -0.00130193 1.20109e-21)
(0.000365798 8.22114e-05 8.85376e-22)
(-0.000239872 0.000629841 5.52699e-22)
(-0.000237957 0.000479446 -1.41458e-22)
(-8.35588e-05 0.000128949 0)
(-1.15013e-05 7.92754e-07 0)
(-2.46838e-05 -8.93464e-06 1.01138e-24)
(-0.000137004 -0.000202507 2.19905e-23)
(-0.000287633 -0.000581972 -1.98308e-24)
(-0.000107385 -0.000591431 5.87094e-23)
(0.000947564 0.000250348 8.95782e-24)
(0.0033654 0.00201934 1.84642e-23)
(0.00755778 0.00454528 0)
(0.0137671 0.0074693 0)
(0.0219139 0.0102835 2.03125e-21)
(0.0315384 0.0124194 4.35151e-21)
(0.0418474 0.0133641 -2.01214e-21)
(0.0518419 0.0127812 3.81183e-21)
(0.0604771 0.0105918 0)
(0.0668176 0.00699899 0)
(0.070165 0.00245272 0)
(0.0701489 -0.00243017 0)
(0.0667722 -0.00697477 -4.81064e-22)
(0.0604109 -0.0105651 -4.64623e-24)
(0.0517664 -0.012753 -1.76556e-21)
(0.0417746 -0.0133365 -1.51562e-23)
(0.0314777 -0.0123953 0)
(0.0218704 -0.0102653 0)
(0.0137409 -0.00745785 0)
(0.007545 -0.00453966 3.06804e-21)
(0.00336068 -0.00201736 1.78082e-23)
(0.000946334 -0.000249862 -9.23222e-22)
(-0.000107634 0.000591588 -5.70637e-22)
(-0.000287704 0.000582038 0)
(-0.000137025 0.000202498 0)
(-2.46835e-05 8.91774e-06 0)
(-4.51018e-05 -2.26934e-05 -7.03531e-24)
(-0.000197884 -0.000283798 -6.59106e-23)
(-0.000290973 -0.000646634 -3.13346e-24)
(0.000177506 -0.000457133 5.8898e-23)
(0.00180736 0.000705368 -1.00792e-21)
(0.00509899 0.00284684 -2.09577e-23)
(0.0104534 0.0057324 -1.49011e-21)
(0.0180426 0.00893257 -2.7453e-23)
(0.02767 0.0118916 -8.36413e-23)
(0.0387491 0.0140261 -4.20487e-21)
(0.0503791 0.0148361 4.03813e-21)
(0.061485 0.0140145 -1.83665e-21)
(0.0709768 0.0115149 -1.26051e-23)
(0.0778957 0.00756881 4.34528e-22)
(0.0815336 0.00264715 -1.21247e-24)
(0.0815167 -0.00261804 1.10901e-24)
(0.077848 -0.00753883 -4.07543e-22)
(0.0709066 -0.0114838 -6.32088e-22)
(0.0614037 -0.0139832 1.76566e-21)
(0.050299 -0.0148067 1.41051e-23)
(0.0386804 -0.0140008 3.17775e-23)
(0.0276187 -0.0118726 -3.00477e-23)
(0.01801 -0.00892041 -2.66454e-23)
(0.0104363 -0.00572623 -2.98343e-21)
(0.00509203 -0.00284456 -2.02899e-23)
(0.00180529 -0.000704796 -9.69163e-22)
(0.000177049 0.000457286 -6.88225e-22)
(-0.000291086 0.000646694 -6.62459e-24)
(-0.000197917 0.000283782 0)
(-4.51035e-05 2.26674e-05 0)
(-7.29024e-05 -4.26499e-05 0)
(-0.000254453 -0.000364244 4.89605e-23)
(-0.00021388 -0.000657947 0)
(0.000659957 -0.000222583 -7.64099e-22)
(0.00298767 0.00127149 1.51281e-23)
(0.00726246 0.00376161 0)
(0.0138501 0.00694825 1.56375e-21)
(0.0228286 0.0103424 0)
(0.0338777 0.0133607 -1.95975e-21)
(0.0462945 0.0154244 1.98961e-21)
(0.0590925 0.0160613 -3.72589e-21)
(0.0711472 0.0150005 2.60492e-24)
(0.0813485 0.0122284 6.32982e-22)
(0.0887354 0.00799879 -3.54411e-23)
(0.0926049 0.00279259 0)
(0.0925877 -0.00275668 2.97951e-23)
(0.0886866 -0.0079629 7.84851e-22)
(0.081276 -0.012193 6.43685e-22)
(0.071062 -0.0149665 1.35476e-23)
(0.0590067 -0.0160305 -1.75561e-21)
(0.0462189 -0.0153987 0)
(0.0338193 -0.0133415 -1.7613e-21)
(0.0227897 -0.0103302 -2.67571e-23)
(0.0138284 -0.00694193 2.95219e-21)
(0.00725282 -0.00375924 3.8731e-23)
(0.00298446 -0.00127092 9.77301e-22)
(0.000659166 0.00022269 -3.34283e-23)
(-0.000214064 0.000657982 -4.08838e-24)
(-0.000254504 0.000364213 2.95609e-24)
(-7.29077e-05 4.26093e-05 0)
(-0.00010601 -6.86882e-05 1.96792e-25)
(-0.000287751 -0.000433614 -1.1691e-22)
(-1.6099e-05 -0.00060347 -6.02099e-24)
(0.00138558 0.000110822 1.33811e-23)
(0.00452708 0.00193334 -1.57511e-23)
(0.00987915 0.00473841 0)
(0.0177493 0.00816374 0)
(0.0281045 0.0116751 0)
(0.0405019 0.01468 1.72258e-21)
(0.0541374 0.0166199 1.77166e-24)
(0.0679601 0.0170594 1.85509e-21)
(0.0808187 0.0157673 -1.48275e-21)
(0.0916026 0.0127607 -5.01501e-23)
(0.0993642 0.0083096 -4.01757e-22)
(0.103416 0.00289655 3.38573e-23)
(0.103399 -0.00285376 -2.99252e-23)
(0.0993152 -0.00826776 -3.74268e-22)
(0.0915291 -0.0127209 1.03547e-23)
(0.0807312 -0.0157308 -1.01218e-23)
(0.0678703 -0.0170277 3.37631e-21)
(0.0540562 -0.0165943 0)
(0.0404371 -0.0146614 1.80936e-21)
(0.0280594 -0.0116633 -2.50326e-23)
(0.0177227 -0.00815776 -1.43779e-21)
(0.00986642 -0.00473623 -1.25054e-24)
(0.00452239 -0.00193293 -1.64409e-23)
(0.0013843 -0.000110836 7.87493e-22)
(-1.63998e-05 0.000603442 -8.88772e-24)
(-0.00028783 0.000433552 0)
(-0.000106021 6.86246e-05 0)
(-0.000138995 -9.99223e-05 2.97745e-25)
(-0.000270725 -0.000480889 -3.48267e-23)
(0.000347527 -0.000474773 -6.5107e-22)
(0.00239912 0.000536612 1.38236e-23)
(0.00646023 0.00267304 -1.61661e-23)
(0.0129669 0.00575206 1.2469e-21)
(0.022147 0.0093527 -1.44488e-21)
(0.0338472 0.0129115 2.49076e-23)
(0.0475093 0.0158433 -1.76934e-21)
(0.0622448 0.0176204 1.63576e-21)
(0.0769591 0.0178499 2.67484e-23)
(0.0904926 0.0163404 1.0583e-22)
(0.10175 0.0131365 -1.09849e-21)
(0.109807 0.00851902 3.41004e-22)
(0.114 0.00296544 -3.40058e-23)
(0.113984 -0.00291578 0)
(0.109759 -0.00847126 0)
(0.101676 -0.0130924 9.54614e-24)
(0.0904042 -0.0163015 -1.31287e-21)
(0.0768668 -0.0178175 -1.63294e-21)
(0.0621594 -0.0175953 -1.60307e-21)
(0.047439 -0.0158257 0)
(0.0337963 -0.0129008 2.40769e-23)
(0.0221155 -0.00934758 1.35031e-21)
(0.0129507 -0.00575047 1.86122e-23)
(0.00645373 -0.00267301 9.99949e-22)
(0.00239715 -0.000536866 -1.20924e-23)
(0.000347043 0.000474623 9.82876e-24)
(-0.000270845 0.000480771 -1.57584e-22)
(-0.000139013 9.98223e-05 -3.5266e-25)
(-0.000161889 -0.000134696 9.31878e-24)
(-0.000167872 -0.000495236 3.98758e-22)
(0.00092539 -0.000268113 6.69981e-22)
(0.00374319 0.0010441 8.80518e-22)
(0.0088175 0.00347121 0)
(0.0165382 0.00677829 -1.29172e-21)
(0.0270351 0.0104923 9.66924e-23)
(0.0400323 0.0140372 0)
(0.0548682 0.0168482 -1.56299e-21)
(0.0705876 0.0184359 -1.70033e-21)
(0.0860705 0.0184518 -1.44387e-21)
(0.100165 0.0167429 1.09961e-22)
(0.1118 0.0133774 5.43134e-22)
(0.120087 0.00864231 -3.41725e-22)
(0.124387 0.00300472 -8.84891e-25)
(0.124371 -0.00294829 7.73513e-25)
(0.12004 -0.00858872 2.31884e-24)
(0.111728 -0.0133291 -3.04531e-24)
(0.100077 -0.0167018 9.7573e-23)
(0.0859772 -0.018419 1.04693e-23)
(0.0704993 -0.0184117 1.64234e-21)
(0.0547934 -0.0168321 1.48247e-21)
(0.0399762 -0.0140282 -2.30444e-23)
(0.0269987 -0.0104885 -1.3527e-21)
(0.0165183 -0.00677771 -6.29207e-25)
(0.00880886 -0.00347185 -1.05819e-21)
(0.00374031 -0.00104477 8.58089e-22)
(0.000924635 0.000267751 -1.94044e-23)
(-0.000168057 0.000495021 1.73916e-22)
(-0.000161918 0.000134539 5.87382e-24)
(-0.000159064 -0.000170671 -1.04758e-23)
(6.45135e-05 -0.000467014 -2.24434e-22)
(0.00176721 1.53229e-05 -1.0824e-23)
(0.00545726 0.00161945 -3.24261e-23)
(0.0116247 0.00430794 1.64252e-23)
(0.0206003 0.00779431 1.91546e-23)
(0.0324018 0.0115631 1.35021e-21)
(0.0466349 0.0150419 2.28011e-23)
(0.0625491 0.0176956 3.05136e-21)
(0.0791402 0.0190776 -2.2466e-23)
(0.0952789 0.0188836 2.85838e-21)
(0.109832 0.0169959 1.26106e-21)
(0.121765 0.0135026 0)
(0.130224 0.00869264 -2.9122e-22)
(0.134603 0.00301903 0)
(0.134587 -0.00295605 0)
(0.130179 -0.00863339 0)
(0.121695 -0.0134502 4.23778e-22)
(0.109746 -0.0169526 1.22057e-21)
(0.0951858 -0.0188504 1.28502e-21)
(0.0790502 -0.0190545 0)
(0.0624708 -0.0176815 -1.52265e-21)
(0.0465742 -0.0150351 1.36265e-21)
(0.0323606 -0.0115613 2.01591e-23)
(0.0205766 -0.00779522 -3.71204e-25)
(0.0116136 -0.00430962 -1.61338e-23)
(0.00545324 -0.00162076 -1.81131e-23)
(0.00176608 -1.60301e-05 0)
(6.42299e-05 0.000466638 2.61001e-22)
(-0.000159108 0.000170425 -4.9925e-23)
(-0.000108297 -0.000204986 0)
(0.000477445 -0.000388704 3.31198e-22)
(0.00292206 0.000369621 -1.21689e-23)
(0.00757695 0.00224685 -4.11207e-23)
(0.0149028 0.00516355 1.63106e-23)
(0.0251557 0.00877939 -1.84687e-23)
(0.0382322 0.0125496 1.27338e-21)
(0.0536298 0.0159192 -1.34024e-21)
(0.0705248 0.0183892 -1.48738e-21)
(0.0878803 0.0195576 -2.09588e-23)
(0.104572 0.0191625 -1.354e-21)
(0.119495 0.0171182 1.912e-24)
(0.131654 0.0135287 7.93256e-24)
(0.140238 0.00868136 2.92595e-22)
(0.14467 0.00301239 -2.5389e-23)
(0.144655 -0.00294311 0)
(0.140195 -0.00861665 2.59478e-24)
(0.131587 -0.0134724 -4.28586e-22)
(0.119411 -0.0170728 -9.20032e-24)
(0.10448 -0.0191291 -2.49324e-21)
(0.0877898 -0.0195357 -1.27576e-21)
(0.070444 -0.0183774 -2.08643e-23)
(0.0535652 -0.015915 -1.4016e-21)
(0.0381866 -0.0125502 3.8749e-23)
(0.0251281 -0.00878231 -1.5121e-25)
(0.0148891 -0.00516669 9.66708e-22)
(0.00757155 -0.0022491 -1.73382e-21)
(0.00292041 -0.000370854 0)
(0.000477018 0.000388072 -2.72724e-22)
(-0.000108363 0.000204605 4.52548e-23)
(1.98574e-05 -0.000234486 0)
(0.00112772 -0.000255672 -3.28617e-22)
(0.00443649 0.000784744 -1.32066e-23)
(0.0101336 0.00290965 -9.04489e-22)
(0.0186683 0.0060192 -1.6063e-23)
(0.0302021 0.0097152 -1.09598e-21)
(0.0445093 0.0134396 -1.27366e-21)
(0.0609923 0.0166659 1.35807e-21)
(0.0787699 0.0189347 -2.03904e-23)
(0.0967884 0.0198885 -1.26487e-21)
(0.113939 0.0193051 2.01895e-23)
(0.129152 0.017127 0)
(0.141478 0.0134704 0)
(0.150145 0.00861826 0)
(0.154611 0.0029882 4.91976e-23)
(0.154597 -0.00291294 0)
(0.150104 -0.00854834 2.1614e-22)
(0.141414 -0.0134102 2.3478e-24)
(0.129072 -0.0170796 0)
(0.113849 -0.0192715 1.20678e-21)
(0.0966985 -0.019868 2.53389e-21)
(0.0786878 -0.0189253 -1.25471e-21)
(0.0609246 -0.0166646 1.18788e-21)
(0.0444598 -0.0134432 -1.79004e-26)
(0.0301707 -0.00972064 1.06482e-21)
(0.0186517 -0.00602426 -1.00682e-21)
(0.0101266 -0.00291321 8.80029e-22)
(0.00443418 -0.000786742 -7.25326e-22)
(0.0011271 0.000254652 0)
(1.97613e-05 0.0002339 0)
(0.000262282 -0.000255984 0)
(0.00207588 -6.66844e-05 0)
(0.00635289 0.00124748 7.4194e-22)
(0.0131542 0.00359138 1.38515e-23)
(0.0229326 0.00685732 -1.57017e-23)
(0.0357335 0.0105861 1.10099e-21)
(0.0512142 0.0142245 3.64254e-23)
(0.068698 0.0172817 -1.93515e-23)
(0.0872618 0.0193394 0)
(0.105848 0.020083 1.25977e-21)
(0.123371 0.019327 1.10464e-21)
(0.138806 0.0170377 -6.66627e-24)
(0.151245 0.0133404 3.65403e-22)
(0.159962 0.00851181 -6.48192e-25)
(0.164444 0.00294941 -2.31496e-23)
(0.164431 -0.00286852 1.39595e-23)
(0.159924 -0.00843697 -2.19026e-22)
(0.151185 -0.0132767 3.26806e-22)
(0.138729 -0.0169883 -8.64646e-22)
(0.123285 -0.0192932 0)
(0.105759 -0.0200639 -8.06743e-23)
(0.0871793 -0.0193325 2.38037e-21)
(0.0686281 -0.0172836 -1.20512e-21)
(0.0511613 -0.0142315 9.60555e-26)
(0.0356984 -0.0105946 -7.38466e-23)
(0.022913 -0.0068648 9.04546e-22)
(0.0131453 -0.00359665 8.34471e-22)
(0.00634975 -0.00125054 7.40727e-22)
(0.00207498 6.50959e-05 1.06762e-23)
(0.000262142 0.000255096 0)
(0.000663017 -0.000266533 0)
(0.00338373 0.000175886 4.09468e-22)
(0.00870828 0.00174262 -1.49895e-21)
(0.016661 0.00427649 -8.58462e-22)
(0.0277026 0.00766193 -9.21465e-22)
(0.0417398 0.0113794 1.60007e-23)
(0.058327 0.0148989 -1.72494e-23)
(0.0767239 0.0177687 0)
(0.0959794 0.0196116 -1.12897e-21)
(0.115044 0.0201539 1.07899e-21)
(0.132864 0.0192423 -1.08404e-21)
(0.148457 0.016864 7.70655e-24)
(0.160965 0.0131501 -6.91994e-22)
(0.169701 0.00836932 0)
(0.174186 0.00289854 0)
(0.174174 -0.00281241 -1.45565e-23)
(0.169666 -0.00828987 1.98606e-24)
(0.16091 -0.013083 -3.14478e-23)
(0.148385 -0.0168127 8.62833e-22)
(0.132782 -0.0192083 9.47401e-22)
(0.114958 -0.0201362 -2.15689e-21)
(0.0958976 -0.0196074 -1.16231e-21)
(0.0766526 -0.0177741 1.72801e-23)
(0.0582713 -0.0149096 -1.62686e-23)
(0.0417014 -0.0113913 -9.99158e-22)
(0.0276801 -0.00767234 -9.41428e-22)
(0.0166502 -0.00428394 -8.72983e-22)
(0.00870417 -0.0017471 -6.79003e-22)
(0.00338247 -0.000178277 6.32805e-24)
(0.000662818 0.000265209 -4.78972e-24)
(0.00127247 -0.000263692 -5.16106e-22)
(0.00511174 0.00046618 -3.49395e-23)
(0.0115336 0.00225419 1.42143e-21)
(0.0206723 0.00495095 8.84655e-22)
(0.0329806 0.00841882 9.44035e-22)
(0.0482083 0.0120852 -1.50911e-23)
(0.0658271 0.0154602 1.62105e-23)
(0.0850476 0.018131 0)
(0.104904 0.0197609 1.14126e-21)
(0.124364 0.0201136 -1.10569e-21)
(0.142411 0.0190646 0)
(0.158109 0.0166182 0)
(0.170647 0.0129094 3.33234e-22)
(0.179377 0.00819713 5.58559e-25)
(0.183852 0.00283775 1.88494e-23)
(0.183841 -0.0027468 4.36876e-25)
(0.179345 -0.00811342 -4.34683e-25)
(0.170596 -0.012839 -2.95399e-22)
(0.158043 -0.0165652 7.29074e-22)
(0.142334 -0.0190304 -1.81846e-21)
(0.124281 -0.0200972 1.05664e-21)
(0.104824 -0.0197593 -1.55716e-23)
(0.0849759 -0.0181399 9.79183e-22)
(0.0657692 -0.0154748 0)
(0.0481669 -0.012101 1.4551e-23)
(0.0329551 -0.00843267 -1.33036e-23)
(0.0206594 -0.00496108 0)
(0.0115283 -0.00226051 1.34893e-21)
(0.00511004 -0.000469668 0)
(0.00127219 0.000261754 -5.04328e-22)
(0.00214611 -0.000245735 5.44216e-22)
(0.00731643 0.00079529 2.90746e-22)
(0.0148533 0.00276666 -7.05873e-22)
(0.0252021 0.00560248 1.26039e-23)
(0.0387641 0.00911571 -1.40386e-23)
(0.0551234 0.0126965 8.84383e-22)
(0.0736936 0.0159083 -3.01811e-23)
(0.0936483 0.0183743 1.58642e-23)
(0.114019 0.0197969 9.76044e-22)
(0.133797 0.0199741 -1.45393e-23)
(0.152009 0.0188061 -8.53854e-22)
(0.167764 0.0163115 1.31685e-24)
(0.180297 0.0126268 2.88401e-22)
(0.189001 0.00800071 -5.18978e-25)
(0.193456 0.00276893 -1.89772e-23)
(0.193446 -0.00267357 -3.9464e-25)
(0.188972 -0.0079131 2.04441e-24)
(0.180251 -0.0125535 2.52661e-22)
(0.167703 -0.0162568 -7.69393e-23)
(0.151937 -0.0187716 8.33934e-23)
(0.133719 -0.0199589 0)
(0.113941 -0.0197979 -9.11645e-22)
(0.093577 -0.0183868 -1.91321e-21)
(0.0736344 -0.0159271 1.41395e-23)
(0.0550795 -0.0127167 8.31825e-22)
(0.0387359 -0.00913349 -1.24654e-23)
(0.025187 -0.00561582 0)
(0.0148468 -0.00277529 -6.8033e-22)
(0.00731419 -0.00080023 5.81958e-25)
(0.00214572 0.000242953 5.46619e-22)
(0.00334277 -0.000211809 8.76013e-22)
(0.010048 0.00115196 -4.26251e-22)
(0.0186856 0.003266 -6.3146e-22)
(0.0302603 0.00622064 0)
(0.0450466 0.00974235 0)
(0.0624678 0.0132093 -9.00646e-22)
(0.0819058 0.0162452 1.41077e-23)
(0.102506 0.0185054 8.97026e-22)
(0.123308 0.0197297 -8.19759e-23)
(0.143335 0.0197467 8.58928e-22)
(0.161655 0.018478 8.88532e-22)
(0.177425 0.0159537 -1.09612e-23)
(0.189925 0.01231 -2.7963e-22)
(0.198584 0.00778481 0)
(0.20301 0.00269366 0)
(0.203001 -0.00259436 0)
(0.198558 -0.00769367 0)
(0.189883 -0.0122339 -2.46417e-22)
(0.17737 -0.0158973 -6.69033e-22)
(0.161588 -0.0184432 1.52108e-21)
(0.143261 -0.0197327 8.17246e-22)
(0.123233 -0.0197332 6.95135e-23)
(0.102436 -0.0185215 9.67254e-23)
(0.081846 -0.0162683 1.27046e-25)
(0.0624219 -0.0132341 -7.69068e-23)
(0.0450159 -0.00976449 9.64628e-25)
(0.0302429 -0.00623769 -1.13145e-23)
(0.0186778 -0.00327745 0)
(0.0100452 -0.00115877 0)
(0.00334224 0.000207894 0)
(0.00492258 -0.000161999 -2.06369e-21)
(0.0133486 0.00152347 -4.39621e-22)
(0.0230433 0.00374044 6.43683e-22)
(0.0358529 0.00679662 -7.39799e-22)
(0.0518175 0.0102906 0)
(0.0702229 0.013622 0)
(0.0904434 0.0164748 0)
(0.111603 0.018532 -9.08887e-22)
(0.132758 0.0195695 -1.73807e-21)
(0.152969 0.0194424 -9.063e-22)
(0.171347 0.0180906 7.4339e-22)
(0.187095 0.0155535 5.61906e-24)
(0.199535 0.0119656 -2.41579e-22)
(0.208134 0.00755354 0)
(0.212524 0.00261335 0)
(0.212516 -0.00251055 0)
(0.208112 -0.00745925 1.36453e-24)
(0.199498 -0.0118871 2.05435e-22)
(0.187045 -0.0154957 0)
(0.171286 -0.0180556 -7.32414e-22)
(0.152901 -0.0194294 -8.10753e-22)
(0.132688 -0.0195753 8.4791e-22)
(0.111535 -0.0185516 8.4622e-22)
(0.0903836 -0.0165022 7.50161e-22)
(0.0701756 -0.0136516 -7.83731e-22)
(0.0517846 -0.0103175 1.16619e-23)
(0.0358334 -0.00681791 1.88629e-25)
(0.023034 -0.00375524 -9.52053e-24)
(0.0133451 -0.00153262 0)
(0.00492187 0.000156603 0)
(0.00694477 -9.7316e-05 2.5289e-21)
(0.0172508 0.00189664 2.27847e-22)
(0.0279341 0.00418084 0)
(0.0419821 0.00732314 7.6177e-22)
(0.0590628 0.0107544 0)
(0.0783691 0.0139354 0)
(0.0992863 0.016602 7.3349e-22)
(0.120921 0.0184624 0)
(0.142358 0.0193262 7.35e-23)
(0.162693 0.0190714 -1.1507e-23)
(0.181084 0.0176535 -7.29855e-22)
(0.196777 0.0151189 -4.15826e-24)
(0.209136 0.0115994 4.70233e-22)
(0.217661 0.00731046 7.26724e-23)
(0.222009 0.00252919 0)
(0.222002 -0.00242333 0)
(0.217642 -0.0072134 1.23655e-24)
(0.209104 -0.0115187 -2.09135e-22)
(0.196733 -0.0150597 0)
(0.181029 -0.0176181 0)
(0.16263 -0.0190593 1.14744e-23)
(0.142291 -0.0193342 -1.11456e-23)
(0.120856 -0.0184853 7.12314e-22)
(0.0992274 -0.0166337 -7.60924e-22)
(0.078321 -0.0139699 1.03856e-23)
(0.059028 -0.0107864 -9.6639e-24)
(0.0419607 -0.00734912 0)
(0.0279233 -0.00419954 -5.70196e-22)
(0.0172464 -0.00190864 -1.94047e-23)
(0.00694386 9.0029e-05 -1.33337e-21)
(0.00946554 -1.96015e-05 -1.43067e-21)
(0.0217771 0.00225873 1.91372e-22)
(0.0333616 0.00458088 6.5398e-22)
(0.0486459 0.00779408 6.28094e-22)
(0.066765 0.0111302 -1.03885e-23)
(0.0868866 0.0141523 1.04769e-23)
(0.108416 0.016633 -8.45328e-23)
(0.130446 0.0183053 -7.04334e-22)
(0.152095 0.0190095 1.49215e-21)
(0.172501 0.0186431 -1.06182e-23)
(0.190864 0.0171749 1.08454e-23)
(0.206474 0.0146566 2.62538e-22)
(0.218733 0.0112165 -4.26542e-22)
(0.227173 0.00705863 -7.34161e-23)
(0.231473 0.00244221 -1.3941e-23)
(0.231467 -0.00233374 -5.8802e-24)
(0.227157 -0.00695919 2.537e-25)
(0.218706 -0.0111338 -1.70048e-22)
(0.206435 -0.0145962 -2.29561e-22)
(0.190815 -0.0171393 0)
(0.172444 -0.0186318 0)
(0.152034 -0.0190194 0)
(0.130384 -0.0183314 -7.20492e-22)
(0.108358 -0.016669 1.008e-23)
(0.0868384 -0.0141917 9.31387e-24)
(0.066729 -0.0111675 -1.82743e-23)
(0.0486227 -0.00782518 8.78505e-24)
(0.0333494 -0.00460399 -1.00928e-23)
(0.0217718 -0.00227413 1.58957e-22)
(0.00946438 9.95785e-06 1.41503e-21)
(0.012536 6.86384e-05 0)
(0.0269398 0.00259834 -8.80945e-22)
(0.0393264 0.00493677 3.52352e-23)
(0.0558385 0.0082044 -6.36652e-22)
(0.0749047 0.0114163 -5.02684e-22)
(0.0957558 0.0142769 9.1824e-24)
(0.117813 0.0165748 -6.92651e-22)
(0.140161 0.0180694 1.37013e-21)
(0.161961 0.0186286 -7.29498e-22)
(0.182388 0.0181665 6.31605e-22)
(0.200687 0.0166627 5.64644e-24)
(0.216188 0.014173 -2.63653e-22)
(0.228331 0.0108213 2.07199e-22)
(0.236677 0.00680072 -6.24995e-23)
(0.240924 0.00235328 1.43981e-23)
(0.24092 -0.00224266 1.03464e-23)
(0.236663 -0.00669928 1.00798e-24)
(0.228308 -0.010737 1.69973e-22)
(0.216156 -0.0141115 2.27196e-22)
(0.200645 -0.0166268 3.75262e-24)
(0.182338 -0.0181559 9.49594e-24)
(0.161906 -0.0186403 -9.2583e-24)
(0.140104 -0.0180985 5.77442e-22)
(0.117758 -0.0166148 0)
(0.095708 -0.0143214 -5.22331e-22)
(0.0748678 -0.011459 0)
(0.0558137 -0.00824096 4.84805e-22)
(0.0393128 -0.0049648 6.29447e-22)
(0.0269337 -0.00261771 -1.49604e-22)
(0.0125346 -8.11524e-05 -1.90327e-21)
(0.0162005 0.000164444 -2.22133e-21)
(0.032742 0.00290601 6.48816e-22)
(0.0458265 0.00524689 -7.34798e-22)
(0.0635496 0.00854996 0)
(0.0834605 0.0116134 9.43885e-22)
(0.104957 0.014315 -5.1769e-22)
(0.12746 0.0164345 -1.8419e-23)
(0.150055 0.0177636 -5.41419e-23)
(0.171947 0.0181924 0)
(0.192351 0.0176496 -6.45381e-22)
(0.210553 0.0161237 9.17362e-24)
(0.225923 0.0136734 -3.26815e-24)
(0.237935 0.0104176 4.48646e-24)
(0.246178 0.00653901 3.95238e-24)
(0.25037 0.00226318 -1.31865e-23)
(0.250366 -0.00215083 -4.51758e-24)
(0.246168 -0.00643596 -3.9039e-23)
(0.237917 -0.010332 -9.00378e-25)
(0.225897 -0.013611 0)
(0.210517 -0.0160875 0)
(0.192307 -0.0176395 0)
(0.171897 -0.0182057 0)
(0.150002 -0.0177954 -5.93552e-22)
(0.127408 -0.0164784 8.22464e-24)
(0.104911 -0.0143643 5.3975e-22)
(0.0834232 -0.0116617 -6.87643e-24)
(0.0635236 -0.00859224 -4.98873e-22)
(0.0458115 -0.00528029 3.65734e-24)
(0.0327351 -0.0029299 5.52583e-22)
(0.0161987 -0.000180378 4.20272e-21)
(0.0204953 0.000264638 2.34874e-21)
(0.0391784 0.00317462 5.67246e-24)
(0.0528577 0.00551118 8.96541e-22)
(0.0717651 0.00882752 0)
(0.0924099 0.0117242 -4.48429e-22)
(0.114472 0.014273 5.28679e-22)
(0.13734 0.0162197 4.99905e-22)
(0.160114 0.0173965 -5.12514e-23)
(0.182046 0.0177092 -5.48715e-22)
(0.202385 0.0170999 -5.39837e-22)
(0.220461 0.0155642 4.74531e-24)
(0.235681 0.0131626 7.08838e-25)
(0.24755 0.0100089 4.13872e-24)
(0.255683 0.00627548 1.10716e-22)
(0.259816 0.00217255 1.32239e-23)
(0.259813 -0.0020589 0)
(0.255676 -0.0061712 4.07542e-23)
(0.247537 -0.0099222 -8.07015e-25)
(0.235661 -0.0130994 0)
(0.220432 -0.0155277 0)
(0.202348 -0.0170903 7.74326e-24)
(0.182002 -0.0177239 -4.7976e-22)
(0.160066 -0.0174307 -4.65913e-22)
(0.137292 -0.0162672 -4.25369e-22)
(0.114427 -0.0143269 -5.26977e-25)
(0.0923728 -0.011778 3.32897e-22)
(0.0717383 -0.00887573 2.54658e-22)
(0.0528416 -0.00555032 -7.11545e-24)
(0.0391706 -0.00320356 2.04853e-22)
(0.0204932 -0.000284557 -4.84229e-21)
(0.025448 0.000366049 0)
(0.0462366 0.00339955 0)
(0.0604141 0.00573057 -9.34657e-22)
(0.080467 0.0090349 4.63829e-24)
(0.10173 0.0117534 -3.64751e-22)
(0.124282 0.0141576 4.31073e-22)
(0.147438 0.0159383 -5.15346e-22)
(0.170328 0.0169763 -5.45468e-22)
(0.192249 0.0171868 5.46591e-22)
(0.212488 0.0165242 5.00411e-23)
(0.230413 0.0149897 -4.40166e-22)
(0.245465 0.0126448 0)
(0.257181 0.00959805 0)
(0.265197 0.00601183 -5.41178e-23)
(0.269268 0.00208196 0)
(0.269267 -0.00196741 1.51244e-25)
(0.265193 -0.00590667 -1.50857e-25)
(0.257171 -0.00951052 1.11294e-22)
(0.24545 -0.012581 0)
(0.23039 -0.014953 0)
(0.212458 -0.016515 4.13381e-22)
(0.192212 -0.0172026 4.70456e-22)
(0.170285 -0.0170127 4.65246e-22)
(0.147393 -0.0159891 4.39641e-22)
(0.124239 -0.014216 1.16363e-23)
(0.101694 -0.0118126 -3.46459e-22)
(0.0804397 -0.00908911 -3.88945e-22)
(0.0603971 -0.00577576 -9.81748e-22)
(0.0462281 -0.00343402 2.19834e-22)
(0.0254457 -0.000390522 2.63419e-21)
(0.0310772 0.000465719 0)
(0.0538991 0.00357852 0)
(0.0684878 0.00590648 -1.17442e-21)
(0.0896339 0.00917105 -2.53716e-23)
(0.111399 0.0117068 6.89612e-22)
(0.134369 0.013976 -4.3168e-22)
(0.157738 0.0155978 -3.94667e-22)
(0.180686 0.0165112 4.42643e-22)
(0.202552 0.0166322 0)
(0.222657 0.0159287 4.84214e-22)
(0.240407 0.0144051 8.66155e-22)
(0.255277 0.0121237 5.80083e-25)
(0.266829 0.00918751 3.52033e-24)
(0.274725 0.0057495 -9.45141e-25)
(0.278731 0.00199189 0)
(0.278731 -0.00187684 0)
(0.274723 -0.00564383 6.43281e-25)
(0.266824 -0.00909946 -2.11746e-22)
(0.255267 -0.0120595 1.33502e-22)
(0.240391 -0.0143682 3.31687e-22)
(0.222634 -0.0159198 -4.03855e-22)
(0.202521 -0.0166491 -6.09182e-24)
(0.180648 -0.0165495 -3.6573e-22)
(0.157698 -0.0156516 5.42898e-24)
(0.13433 -0.0140386 2.95039e-22)
(0.111364 -0.0117712 -4.61902e-24)
(0.0896066 -0.00923126 1.25134e-22)
(0.0684701 -0.00595793 -1.06989e-22)
(0.0538899 -0.00361894 -1.03441e-21)
(0.0310745 -0.000495288 0)
(0.0373924 0.000561051 0)
(0.0621441 0.00371133 1.45154e-21)
(0.0770688 0.0060404 1.1985e-21)
(0.0992415 0.00923626 2.78477e-23)
(0.121395 0.0115918 -6.46066e-22)
(0.144718 0.0137352 3.04969e-22)
(0.168226 0.015206 4.39771e-23)
(0.191179 0.0160085 -4.55016e-22)
(0.212949 0.0160522 8.49807e-26)
(0.232891 0.015319 4.23499e-25)
(0.250445 0.0138148 -4.04709e-22)
(0.265119 0.0116026 1.58969e-22)
(0.2765 0.00877949 1.28633e-22)
(0.28427 0.00548974 -8.74949e-25)
(0.28821 0.00190273 0)
(0.288211 -0.00178756 0)
(0.28427 -0.00538389 5.68325e-25)
(0.276499 -0.00869119 9.9181e-23)
(0.265114 -0.0115381 -1.34633e-22)
(0.250435 -0.0137777 -3.33877e-22)
(0.232873 -0.0153102 0)
(0.212924 -0.0160698 3.32379e-22)
(0.191147 -0.0160485 3.65316e-22)
(0.168191 -0.0152625 9.57285e-24)
(0.144681 -0.0138016 -3.05436e-22)
(0.121361 -0.0116612 0)
(0.0992146 -0.00930236 1.01651e-23)
(0.0770507 -0.0060982 1.15188e-21)
(0.0621344 -0.00375803 1.46082e-21)
(0.0373894 -0.000596216 -3.43605e-21)
(0.044395 0.00064991 0)
(0.0709475 0.00379945 -3.15923e-21)
(0.086145 0.00613366 -1.47881e-21)
(0.109263 0.00923224 0)
(0.131697 0.0114162 5.32098e-24)
(0.15531 0.0134419 -5.50715e-23)
(0.178889 0.0147703 3.95207e-23)
(0.201799 0.0154754 0)
(0.223434 0.0154527 0)
(0.243186 0.0147 3.64469e-22)
(0.260527 0.0132226 1.78469e-22)
(0.274993 0.0110841 -1.62877e-22)
(0.286196 0.00837582 -1.28467e-22)
(0.293836 0.00523359 4.02953e-23)
(0.297709 0.00181484 -5.06256e-24)
(0.29771 -0.00169991 0)
(0.293839 -0.00512789 2.05013e-23)
(0.286198 -0.00828754 0)
(0.274993 -0.0110195 -1.98871e-24)
(0.260523 -0.0131855 -1.28284e-22)
(0.243175 -0.0146914 -2.84769e-22)
(0.223416 -0.0154709 -4.40391e-23)
(0.201773 -0.0155167 0)
(0.178859 -0.0148291 0)