/*--------------------------------*- C++ -*----------------------------------*\
| =========                 |                                                 |
| \\      /  F ield         | OpenFOAM: The Open Source CFD Toolbox           |
|  \\    /   O peration     | Version:  2.4.0                                 |
|   \\  /    A nd           | Web:      www.OpenFOAM.org                      |
|    \\/     M anipulation  |                                                 |
\*---------------------------------------------------------------------------*/
FoamFile
{
    version     2.0;
    format      ascii;
    class       volScalarField;
    location    "0.01";
    object      p;
}
// * * * * * * * * * * * * * * * * * * * * * * * * * * * * * * * * * * * * * //

dimensions      [0 2 -2 0 0 0 0];

internalField   nonuniform List<scalar> 
7200
(
0.000138031
-1.601
1.03075
-1.11803
-0.204672
-0.627037
-0.497223
-0.586484
-0.584526
-0.614825
-0.631281
-0.651493
-0.669666
-0.688276
-0.706881
-0.726055
-0.745985
-0.767308
-0.789544
-0.816745
-0.836608
-0.897765
-0.832222
-1.22661
-0.110317
-4.06688
8.59556
-28.733
54.5514
-57.9622
-0.0184161
-1.65288
0.761784
-0.848756
-0.293865
-0.582387
-0.507188
-0.577516
-0.583742
-0.61209
-0.629991
-0.650474
-0.669274
-0.688435
-0.70767
-0.727545
-0.748294
-0.770531
-0.794101
-0.821928
-0.846672
-0.898153
-0.878865
-1.12175
-0.555113
-2.63606
3.9869
-17.8496
38.3859
-48.2295
-0.0102701
-1.70617
0.534402
-0.707194
-0.315702
-0.562764
-0.507922
-0.572622
-0.582214
-0.610177
-0.628866
-0.649694
-0.668971
-0.688608
-0.708384
-0.728884
-0.750377
-0.773486
-0.798241
-0.82711
-0.854787
-0.904292
-0.901736
-1.10347
-0.690858
-2.24102
2.30105
-12.6435
28.5988
-42.3886
0.00321058
-1.73921
0.330031
-0.639341
-0.321301
-0.548503
-0.506922
-0.568677
-0.580824
-0.608585
-0.627906
-0.649002
-0.668672
-0.688707
-0.708956
-0.730016
-0.752207
-0.776145
-0.802069
-0.831989
-0.862506
-0.910679
-0.922593
-1.09355
-0.788958
-2.02112
1.41177
-9.67245
21.8047
-37.5601
0.0180267
-1.75251
0.144252
-0.619179
-0.32632
-0.538411
-0.505535
-0.565412
-0.579653
-0.607273
-0.627101
-0.648385
-0.668368
-0.688726
-0.709387
-0.730958
-0.753809
-0.778557
-0.805649
-0.836692
-0.869926
-0.917651
-0.941471
-1.09072
-0.860375
-1.89229
0.864547
-7.84205
16.7556
-33.2495
0.0327471
-1.75172
-0.0170573
-0.633757
-0.337456
-0.533122
-0.505176
-0.563002
-0.57889
-0.60631
-0.626502
-0.647873
-0.668067
-0.688661
-0.709659
-0.731676
-0.755141
-0.780672
-0.808917
-0.841143
-0.87701
-0.924843
-0.959246
-1.09005
-0.924109
-1.80573
0.47444
-6.7144
13.0205
-29.4556
0.0462916
-1.74194
-0.151002
-0.671679
-0.357669
-0.533619
-0.507007
-0.561907
-0.578788
-0.605822
-0.626182
-0.647504
-0.667783
-0.688502
-0.70974
-0.73212
-0.75613
-0.782396
-0.811754
-0.845203
-0.883584
-0.932045
-0.975647
-1.09201
-0.9849
-1.74527
0.156992
-6.01361
10.3048
-26.1177
0.0578338
-1.72754
-0.258408
-0.722409
-0.387468
-0.540431
-0.511976
-0.562624
-0.579647
-0.605957
-0.626226
-0.647321
-0.667528
-0.688239
-0.709596
-0.732235
-0.756697
-0.783628
-0.814031
-0.848707
-0.889479
-0.93899
-0.990829
-1.09683
-1.04497
-1.70038
-0.131716
-5.52801
8.34221
-23.1605
0.0668619
-1.71203
-0.342312
-0.777569
-0.425498
-0.553556
-0.520685
-0.565612
-0.581772
-0.606884
-0.626731
-0.647373
-0.667319
-0.687858
-0.70919
-0.731955
-0.756753
-0.784248
-0.8156
-0.85147
-0.8945
-0.94543
-1.00486
-1.1045
-1.1033
-1.66527
-0.400923
-5.12178
6.91964
-20.5218
0.0730529
-1.69793
-0.406865
-0.831245
-0.46942
-0.572444
-0.533359
-0.571207
-0.585439
-0.608771
-0.627796
-0.64771
-0.66717
-0.687345
-0.708478
-0.731212
-0.756196
-0.784123
-0.816287
-0.853273
-0.898408
-0.95105
-1.01759
-1.11408
-1.15719
-1.63446
-0.642571
-4.71895
5.87623
-18.151
0.0761718
-1.6868
-0.456589
-0.879782
-0.51663
-0.596122
-0.549877
-0.579575
-0.590856
-0.611772
-0.629517
-0.648381
-0.667094
-0.686682
-0.707413
-0.729927
-0.754913
-0.783098
-0.815896
-0.853859
-0.900892
-0.955394
-1.02845
-1.12367
-1.20294
-1.60174
-0.843344
-4.28452
5.09353
-16.0066
0.0760046
-1.67942
-0.495857
-0.921403
-0.564741
-0.623375
-0.56984
-0.590705
-0.59814
-0.616
-0.631974
-0.649432
-0.667102
-0.68585
-0.705944
-0.728013
-0.752782
-0.781004
-0.814197
-0.852919
-0.901547
-0.957809
-1.03642
-1.13063
-1.23652
-1.5605
-0.991491
-3.8098
4.48665
-14.0545
0.0723132
-1.67598
-0.528547
-0.955753
-0.611871
-0.652938
-0.592659
-0.604423
-0.607315
-0.621523
-0.63523
-0.650895
-0.6672
-0.684822
-0.704014
-0.725379
-0.749664
-0.777648
-0.81093
-0.850089
-0.899852
-0.957432
-1.04007
-1.13193
-1.25407
-1.50463
-1.08004
-3.30155
3.99699
-12.2674
0.0648076
-1.67627
-0.557864
-0.983458
-0.65675
-0.683647
-0.617658
-0.620439
-0.618309
-0.628358
-0.639316
-0.652794
-0.667387
-0.683572
-0.701562
-0.721925
-0.745414
-0.772824
-0.805803
-0.844946
-0.89518
-0.953218
-1.03771
-1.12452
-1.25236
-1.42932
-1.10764
-2.77396
3.58585
-10.6233
0.0531324
-1.6799
-0.586297
-1.00573
-0.698721
-0.714553
-0.644161
-0.638385
-0.630982
-0.636471
-0.64424
-0.655134
-0.667655
-0.682067
-0.698526
-0.717548
-0.73988
-0.766309
-0.798497
-0.837019
-0.886821
-0.944018
-1.02759
-1.10567
-1.22909
-1.3317
-1.07797
-2.24327
3.22903
-9.10492
0.0368629
-1.68639
-0.615666
-1.02403
-0.737655
-0.744978
-0.671563
-0.657875
-0.645143
-0.645789
-0.64998
-0.65791
-0.667989
-0.680272
-0.69484
-0.712146
-0.732903
-0.757873
-0.788677
-0.825809
-0.874027
-0.928676
-1.00809
-1.07327
-1.1831
-1.21102
-0.998398
-1.72441
2.91247
-7.69867
0.0155091
-1.69533
-0.647225
-1.03987
-0.773831
-0.774532
-0.69938
-0.678541
-0.66058
-0.656211
-0.656496
-0.661102
-0.66837
-0.67815
-0.690441
-0.705615
-0.724329
-0.747286
-0.776007
-0.810818
-0.856068
-0.906135
-0.977902
-1.02595
-1.11442
-1.06849
-0.878408
-1.22923
2.62869
-6.39385
-0.0114765
-1.70638
-0.681788
-1.05465
-0.807804
-0.80309
-0.727274
-0.70007
-0.677084
-0.667621
-0.663734
-0.664684
-0.668772
-0.675667
-0.68527
-0.69786
-0.714011
-0.73433
-0.760166
-0.79158
-0.832295
-0.875537
-0.936152
-0.963187
-1.02421
-0.906982
-0.72818
-0.765926
2.37425
-5.18204
-0.0446881
-1.71936
-0.719855
-1.06957
-0.840291
-0.83075
-0.755062
-0.722224
-0.694471
-0.679907
-0.671634
-0.668623
-0.669174
-0.67279
-0.679274
-0.688796
-0.701819
-0.718807
-0.740871
-0.767698
-0.802192
-0.836295
-0.882461
-0.885261
-0.914581
-0.730409
-0.557458
-0.339101
2.14785
-4.05648
-0.0847549
-1.73419
-0.761727
-1.08564
-0.872068
-0.857787
-0.782706
-0.744857
-0.712599
-0.692971
-0.68014
-0.672889
-0.669555
-0.669495
-0.672413
-0.678354
-0.687644
-0.700559
-0.717896
-0.738874
-0.765423
-0.788142
-0.816965
-0.793162
-0.788347
-0.543251
-0.374797
0.0496146
1.94902
-3.01163
-0.13233
-1.75093
-0.807593
-1.10362
-0.903905
-0.88459
-0.810293
-0.767908
-0.731377
-0.706737
-0.689206
-0.67746
-0.6699
-0.665767
-0.664659
-0.666488
-0.671409
-0.679472
-0.69109
-0.704934
-0.721856
-0.731144
-0.740276
-0.688456
-0.648768
-0.350037
-0.187162
0.400852
1.77744
-2.04284
-0.188079
-1.76973
-0.857594
-1.12416
-0.93652
-0.911621
-0.83801
-0.791403
-0.750766
-0.721161
-0.698804
-0.682323
-0.670208
-0.661603
-0.656004
-0.653174
-0.653075
-0.655488
-0.660389
-0.665841
-0.671579
-0.665685
-0.653413
-0.573115
-0.499273
-0.154965
0.000164952
0.716743
1.63245
-1.14601
-0.252669
-1.7908
-0.911868
-1.14774
-0.970554
-0.939375
-0.86612
-0.81544
-0.770785
-0.736235
-0.708927
-0.687481
-0.670489
-0.657017
-0.64646
-0.638421
-0.632645
-0.628613
-0.625825
-0.621706
-0.61489
-0.592432
-0.557705
-0.449347
-0.343227
0.0383526
0.183477
1.00026
1.51294
-0.317438
-0.326761
-1.81442
-0.970568
-1.17474
-1.00657
-0.968342
-0.894934
-0.840176
-0.791499
-0.751984
-0.719592
-0.692953
-0.670769
-0.652039
-0.63606
-0.622266
-0.610168
-0.59892
-0.587526
-0.572778
-0.552273
-0.512278
-0.454687
-0.319438
-0.183748
0.227021
0.360399
1.25471
1.41736
0.446363
-0.410999
-1.84088
-1.03387
-1.20551
-1.04504
-0.998998
-0.924792
-0.865814
-0.813018
-0.76847
-0.730841
-0.698778
-0.671091
-0.646722
-0.624865
-0.604782
-0.585738
-0.566548
-0.545717
-0.519434
-0.484373
-0.426282
-0.346002
-0.18562
-0.0235813
0.408884
0.529597
1.48333
1.34379
1.14872
-0.505998
-1.87048
-1.10196
-1.24034
-1.08638
-1.03178
-0.956042
-0.892587
-0.835488
-0.785782
-0.74274
-0.705016
-0.671517
-0.641133
-0.612957
-0.586074
-0.559497
-0.5317
-0.500706
-0.46216
-0.411957
-0.335605
-0.233309
-0.0499667
0.134965
0.582476
0.690474
1.68912
1.29007
1.79285
-0.612337
-1.90353
-1.17504
-1.2795
-1.13094
-1.0671
-0.989029
-0.920746
-0.859079
-0.804037
-0.755375
-0.711743
-0.672125
-0.635363
-0.600444
-0.56628
-0.531628
-0.494636
-0.452874
-0.401524
-0.335868
-0.24145
-0.118205
0.0856721
0.290041
0.746915
0.842919
1.87467
1.25398
2.38193
-0.730545
-1.94031
-1.25331
-1.32325
-1.17902
-1.1053
-1.02408
-0.950549
-0.883979
-0.823368
-0.768852
-0.719052
-0.673011
-0.629518
-0.587456
-0.545564
-0.502353
-0.455663
-0.40266
-0.338157
-0.256994
-0.145006
-0.00217439
0.21971
0.440231
0.901785
0.987095
2.04219
1.23327
2.91907
-0.861086
-1.9811
-1.33694
-1.37182
-1.23089
-1.14671
-1.06151
-0.98225
-0.910384
-0.843926
-0.783291
-0.727051
-0.674284
-0.623721
-0.574142
-0.524116
-0.471926
-0.415128
-0.350544
-0.27272
-0.176229
-0.0474118
0.113453
0.350835
0.584511
1.04701
1.12329
2.19352
1.22582
3.40729
-1.00434
-2.02614
-1.42607
-1.42544
-1.28677
-1.19161
-1.1016
-1.01609
-0.938492
-0.865866
-0.798821
-0.735858
-0.676064
-0.618108
-0.560667
-0.502148
-0.440624
-0.373402
-0.29703
-0.205888
-0.0944407
0.0502792
0.22752
0.478002
0.722184
1.18274
1.25183
2.33017
1.22967
3.84959
-1.16061
-2.07566
-1.52082
-1.48431
-1.34685
-1.24023
-1.14458
-1.05231
-0.968496
-0.889346
-0.815578
-0.745598
-0.67848
-0.612826
-0.547208
-0.479886
-0.40874
-0.330877
-0.242631
-0.138323
-0.0124521
0.147119
0.339051
0.60041
0.852822
1.30928
1.37302
2.45342
1.24302
4.24884
-1.33006
-2.12984
-1.62122
-1.54858
-1.41128
-1.29276
-1.19069
-1.09109
-1.00057
-0.914519
-0.833695
-0.756398
-0.681666
-0.608027
-0.533951
-0.457563
-0.376579
-0.287944
-0.187854
-0.07066
0.0689797
0.242275
0.447244
0.717473
0.9762
1.42698
1.48711
2.56435
1.26429
4.60784
-1.51273
-2.18884
-1.72728
-1.61839
-1.48018
-1.34935
-1.24009
-1.13262
-1.03489
-0.941527
-0.853303
-0.768385
-0.685756
-0.603865
-0.521085
-0.435418
-0.344445
-0.244994
-0.133187
-0.003493
0.149174
0.335038
0.551463
0.828785
1.09225
1.53626
1.59434
2.66389
1.29208
4.92929
-1.7085
-2.25276
-1.83891
-1.69381
-1.55362
-1.41011
-1.29292
-1.17703
-1.07157
-0.970498
-0.874521
-0.781679
-0.690881
-0.600494
-0.508796
-0.413686
-0.312637
-0.202402
-0.0790927
0.062635
0.227532
0.424814
0.651219
0.93409
1.201
1.63751
1.69488
2.75291
1.32518
5.21577
-1.9171
-2.32166
-1.95597
-1.77483
-1.63161
-1.4751
-1.34927
-1.22444
-1.11075
-1.00154
-0.897458
-0.796392
-0.697165
-0.598059
-0.497266
-0.392596
-0.281441
-0.160522
-0.0259951
0.127238
0.303539
0.511123
0.746155
1.03325
1.30258
1.73113
1.78891
2.8322
1.36253
5.46976
-2.13803
-2.39554
-2.07824
-1.8614
-1.71412
-1.5443
-1.40918
-1.27491
-1.15248
-1.03474
-0.9222
-0.812618
-0.704719
-0.596698
-0.486667
-0.372362
-0.251125
-0.119681
0.0257216
0.189892
0.376766
0.593589
0.836021
1.12623
1.39714
1.81747
1.8766
2.90248
1.40322
5.69361
-2.37062
-2.47431
-2.2054
-1.95339
-1.80105
-1.61768
-1.47264
-1.32845
-1.19682
-1.07015
-0.948814
-0.830439
-0.713642
-0.596535
-0.477156
-0.353184
-0.221936
-0.0801759
0.0757187
0.250233
0.446862
0.671927
0.920668
1.21306
1.4849
1.89691
1.95812
2.96446
1.44647
5.88953
-2.61399
-2.55784
-2.33707
-2.05058
-1.89224
-1.69512
-1.5396
-1.38505
-1.24378
-1.10779
-0.977341
-0.849911
-0.724013
-0.597675
-0.468871
-0.335239
-0.194093
-0.0422659
0.123704
0.307959
0.513552
0.745937
1.00002
1.29382
1.56608
1.96977
2.03367
3.0188
1.4916
6.05965
-2.86702
-2.64588
-2.47274
-2.15266
-1.98745
-1.77643
-1.60994
-1.44463
-1.2933
-1.14765
-1.00779
-0.871069
-0.735889
-0.600205
-0.461931
-0.318682
-0.167788
-0.00617497
0.169435
0.362829
0.576629
0.815492
1.07407
1.36865
1.64091
2.03639
2.10344
3.06614
1.53802
6.20594
-3.1284
-2.73811
-2.61186
-2.25925
-2.08637
-1.86136
-1.68347
-1.50707
-1.34531
-1.18969
-1.04015
-0.893919
-0.749305
-0.604187
-0.456431
-0.30364
-0.14318
0.0279119
0.212713
0.414657
0.63595
0.880526
1.14286
1.4377
1.70967
2.0971
2.16766
3.10706
1.58525
6.33027
-3.39661
-2.83413
-2.75377
-2.36986
-2.18861
-1.94962
-1.75997
-1.57217
-1.39969
-1.23381
-1.07435
-0.918438
-0.764269
-0.60966
-0.452441
-0.290214
-0.120397
0.059848
0.253387
0.463308
0.691427
0.941028
1.20648
1.50119
1.77261
2.15222
2.22656
3.14215
1.63285
6.43437
-3.66993
-2.93344
-2.89773
-2.48392
-2.29372
-2.0408
-1.83912
-1.63971
-1.45624
-1.27988
-1.11032
-0.944573
-0.78076
-0.616637
-0.450003
-0.278475
-0.0995329
0.089525
0.291351
0.508697
0.743023
0.997035
1.26506
1.55931
1.83001
2.20205
2.2804
3.17192
1.68046
6.51989
-3.9465
-3.03545
-3.04293
-2.60078
-2.40114
-2.13445
-1.92057
-1.7094
-1.51475
-1.32774
-1.14792
-0.972238
-0.798728
-0.6251
-0.449133
-0.268465
-0.0806498
0.116871
0.326537
0.550784
0.790745
1.04862
1.31875
1.61229
1.88215
2.24691
2.32943
3.19687
1.72779
6.58834
-4.22431
-3.13953
-3.18848
-2.7197
-2.51029
-2.23006
-2.00389
-1.7809
-1.57495
-1.37716
-1.18699
-1.00132
-0.818096
-0.635006
-0.449816
-0.260195
-0.063777
0.141851
0.358919
0.589566
0.834637
1.09589
1.36773
1.66037
1.9293
2.2871
2.37391
3.21746
1.77458
6.64111
-4.50126
-3.24493
-3.33347
-2.83989
-2.62048
-2.32706
-2.08861
-1.8538
-1.63651
-1.4279
-1.22734
-1.03165
-0.838753
-0.646283
-0.452011
-0.253648
-0.0489126
0.164461
0.388503
0.62508
0.87478
1.13898
1.4122
1.7038
1.97176
2.32293
2.41412
3.23411
1.82063
6.6795
-4.77519
-3.35089
-3.47694
-2.96048
-2.73101
-2.4248
-2.17421
-1.92768
-1.69908
-1.47967
-1.26873
-1.06307
-0.860563
-0.658829
-0.455648
-0.248777
-0.0360251
0.184731
0.415331
0.657392
0.91128
1.17805
1.45236
1.74283
2.00979
2.35468
2.45031
3.24722
1.86577
6.7047
-5.04392
-3.45659
-3.61789
-3.08058
-2.84109
-2.52262
-2.2601
-2.00204
-1.76225
-1.53213
-1.31089
-1.09536
-0.883358
-0.672518
-0.460632
-0.24551
-0.0250546
0.202719
0.439472
0.686596
0.944269
1.21328
1.48843
1.77771
2.04368
2.38264
2.48274
3.25715
1.90988
6.71784
-5.30527
-3.5612
-3.75533
-3.19927
-2.94993
-2.6198
-2.34569
-2.07638
-1.8256
-1.58492
-1.35353
-1.12827
-0.906948
-0.687197
-0.466841
-0.243749
-0.0159156
0.218508
0.46102
0.712811
0.973899
1.24485
1.52065
1.80871
2.07371
2.40708
2.51168
3.26423
1.95286
6.71997
-5.55714
-3.66387
-3.88831
-3.31561
-3.05671
-2.71561
-2.43033
-2.15014
-1.88865
-1.63766
-1.39634
-1.16155
-0.931114
-0.702689
-0.474131
-0.243371
-0.00849854
0.232208
0.480095
0.736175
1.00034
1.27296
1.54925
1.83607
2.10013
2.42827
2.53735
3.26874
1.99458
6.71173
-5.79753
-3.76379
-4.01586
-3.42868
-3.16062
-2.80932
-2.51338
-2.22276
-1.95093
-1.68994
-1.43895
-1.1949
-0.955619
-0.718797
-0.482335
-0.244233
-0.00267277
0.243946
0.496832
0.756844
1.02377
1.29784
1.57446
1.86005
2.12322
2.44646
2.56001
3.27099
2.03527
6.69397
-6.02454
-3.86016
-4.13711
-3.53757
-3.26085
-2.90016
-2.59417
-2.29365
-2.01193
-1.74132
-1.48102
-1.22802
-0.980207
-0.735305
-0.491271
-0.246174
0.0017111
0.25387
0.511388
0.77499
1.04438
1.31968
1.59651
1.8809
2.14323
2.46189
2.57988
3.27118
2.07467
6.66765
-6.23646
-3.95222
-4.2512
-3.64142
-3.35661
-2.98742
-2.67206
-2.36225
-2.07115
-1.79138
-1.52216
-1.2606
-1.00461
-0.751983
-0.500737
-0.249015
0.00481832
0.262142
0.52393
0.790793
1.06238
1.33871
1.61566
1.89885
2.1604
2.47479
2.59718
3.26956
2.1128
6.63334
-6.43173
-4.03928
-4.35738
-3.73942
-3.44716
-3.07039
-2.74641
-2.42797
-2.12808
-1.83966
-1.56199
-1.29229
-1.02854
-0.768587
-0.510521
-0.252565
0.00682731
0.268936
0.534637
0.804443
1.07796
1.35516
1.63211
1.91414
2.17496
2.48537
2.6121
3.26632
2.1497
6.5916
-6.60885
-4.1207
-4.45498
-3.83084
-3.53182
-3.14842
-2.8166
-2.49026
-2.18222
-1.88573
-1.60014
-1.32278
-1.05171
-0.784865
-0.520401
-0.256624
0.00792681
0.274437
0.543695
0.816135
1.09134
1.36922
1.6461
1.92699
2.18713
2.49384
2.62486
3.26165
2.18542
6.54294
-6.76658
-4.19603
-4.54342
-3.91502
-3.60994
-3.22088
-2.88205
-2.5486
-2.2331
-1.92917
-1.63622
-1.35173
-1.07383
-0.800561
-0.530148
-0.260982
0.00831303
0.278836
0.551298
0.826067
1.10271
1.38113
1.65785
1.93763
2.19714
2.50038
2.63563
3.25569
2.22003
6.48779
-6.90421
-4.2647
-4.6222
-3.99137
-3.68097
-3.28722
-2.94224
-2.60247
-2.28026
-1.96955
-1.66986
-1.3788
-1.09461
-0.815418
-0.53953
-0.265426
0.00818693
0.282327
0.557641
0.834439
1.11229
1.39108
1.66757
1.94625
2.20517
2.50518
2.64458
3.24858
2.25358
6.42654
-7.02101
-4.32638
-4.69096
-4.05942
-3.74442
-3.34695
-2.9967
-2.65144
-2.32327
-2.00649
-1.70071
-1.40369
-1.11377
-0.829178
-0.548314
-0.269742
0.00775144
0.28511
0.562919
0.841449
1.12028
1.39929
1.67546
1.95306
2.21141
2.50839
2.65189
3.24043
2.28616
6.35949
-7.11648
-4.3808
-4.74942
-4.1188
-3.79992
-3.39965
-3.04499
-2.69507
-2.36174
-2.03963
-1.72844
-1.42609
-1.13103
-0.841594
-0.556273
-0.273716
0.00720893
0.287379
0.567329
0.847293
1.12687
1.40595
1.68171
1.95824
2.21605
2.51018
2.65769
3.23135
2.31787
6.28691
-7.19031
-4.42779
-4.79741
-4.16921
-3.84713
-3.44498
-3.08677
-2.73303
-2.39533
-2.06863
-1.75273
-1.44571
-1.14613
-0.852422
-0.563182
-0.277141
0.00675866
0.289329
0.57106
0.852163
1.13226
1.41125
1.68652
1.96196
2.21925
2.51069
2.66213
3.22143
2.34879
6.20903
-7.2424
-4.46728
-4.83484
-4.21047
-3.88585
-3.48266
-3.12174
-2.76501
-2.42373
-2.0932
-1.77331
-1.46229
-1.15882
-0.861435
-0.568827
-0.279812
0.00659457
0.291148
0.574299
0.856242
1.13663
1.41537
1.69006
1.9644
2.22116
2.51004
2.66535
3.21073
2.37905
6.12599
-7.27283
-4.49927
-4.86174
-4.2425
-3.91592
-3.51253
-3.14968
-2.79076
-2.44668
-2.11309
-1.78992
-1.47559
-1.16887
-0.868416
-0.573005
-0.281538
0.00690304
0.293018
0.577226
0.859708
1.14015
1.41848
1.69249
1.9657
2.22193
2.50837
2.66747
3.19931
2.40877
6.03793
-7.28183
-4.52387
-4.87822
-4.2653
-3.93731
-3.53445
-3.17043
-2.81009
-2.46399
-2.12807
-1.80236
-1.4854
-1.17608
-0.873168
-0.575526
-0.282134
0.00786102
0.295111
0.58001
0.862729
1.14299
1.42075
1.69397
1.96602
2.22169
2.50578
2.6686
3.18723
2.43806
5.94493
-7.26979
-4.54124
-4.88444
-4.27895
-3.95002
-3.54839
-3.18391
-2.82288
-2.47549
-2.13797
-1.81042
-1.49152
-1.18026
-0.87551
-0.576216
-0.281432
0.00963425
0.297592
0.582812
0.865463
1.1453
1.42232
1.69464
1.96548
2.22058
2.50237
2.66885
3.17453
2.46706
5.84705
-7.23724
-4.55166
-4.88069
-4.28362
-3.95417
-3.55439
-3.19009
-2.82904
-2.48107
-2.14265
-1.81396
-1.4938
-1.18126
-0.875283
-0.574915
-0.279276
0.0123757
0.30061
0.585781
0.868058
1.14724
1.42333
1.69464
1.96422
2.2187
2.49826
2.66832
3.16122
2.4959
5.7443
-7.18485
-4.55544
-4.86728
-4.27955
-3.94991
-3.55253
-3.18899
-2.82857
-2.48067
-2.14203
-1.81288
-1.49212
-1.17893
-0.872346
-0.571485
-0.275526
0.0162244
0.304304
0.589054
0.870649
1.14892
1.42392
1.69408
1.96233
2.21615
2.49351
2.66711
3.14733
2.52473
5.63669
-7.11338
-4.55297
-4.84461
-4.26705
-3.93748
-3.54295
-3.18069
-2.82147
-2.47426
-2.13605
-1.80708
-1.48637
-1.17316
-0.866583
-0.565804
-0.270058
0.021304
0.308797
0.592754
0.873358
1.15048
1.4242
1.69309
1.95994
2.21305
2.48822
2.66531
3.13289
2.55368
5.52418
-7.02373
-4.54471
-4.81313
-4.24648
-3.91713
-3.52587
-3.16533
-2.80781
-2.46186
-2.12467
-1.79651
-1.47647
-1.16387
-0.857896
-0.557768
-0.262769
0.0277221
0.314198
0.59699
0.876295
1.15202
1.42427
1.69177
1.95714
2.20949
2.48247
2.66301
3.11792
2.58291
5.40676
-6.91688
-4.53115
-4.77333
-4.21823
-3.88921
-3.50151
-3.14305
-2.7877
-2.44352
-2.10792
-1.78115
-1.46239
-1.151
-0.846211
-0.547297
-0.253569
0.0355691
0.320599
0.601857
0.879552
1.15363
1.42423
1.69019
1.95401
2.20554
2.47633
2.66028
3.10242
2.61254
5.2844
-6.79395
-4.51283
-4.72574
-4.18275
-3.85404
-3.47013
-3.11407
-2.76126
-2.41932
-2.08581
-1.76099
-1.44409
-1.13449
-0.831474
-0.534327
-0.24239
0.0449179
0.328077
0.607431
0.883209
1.1554
1.42416
1.68846
1.95064
2.20128
2.46987
2.65721
3.08643
2.64272
5.15707
-6.65614
-4.49034
-4.67094
-4.1405
-3.81202
-3.43203
-3.07858
-2.72864
-2.38934
-2.05841
-1.73607
-1.42158
-1.11434
-0.813649
-0.518814
-0.229183
0.055823
0.336688
0.613772
0.887328
1.15739
1.42412
1.68663
1.94709
2.1968
2.46317
2.65389
3.06998
2.67356
5.02481
-6.50477
-4.46426
-4.60951
-4.09195
-3.7635
-3.38749
-3.0368
-2.69001
-2.35371
-2.02579
-1.70642
-1.39487
-1.09054
-0.792721
-0.500733
-0.213916
0.0683199
0.346473
0.620924
0.891955
1.15964
1.42417
1.68476
1.94343
2.19216
2.4563
2.65038
3.05313
2.70518
4.88773
-6.34131
-4.43519
-4.54207
-4.03757
-3.70886
-3.33681
-2.98897
-2.64551
-2.31253
-1.98803
-1.67209
-1.36398
-1.06309
-0.768694
-0.480081
-0.196577
0.0824248
0.35745
0.628909
0.897117
1.16219
1.42435
1.68289
1.93971
2.18742
2.44933
2.64679
3.03597
2.73765
4.74605
-6.16739
-4.40366
-4.46922
-3.97778
-3.64846
-3.28024
-2.93527
-2.59532
-2.26593
-1.9452
-1.63314
-1.32897
-1.03204
-0.741587
-0.456868
-0.177175
0.0981336
0.369619
0.63773
0.902819
1.16505
1.42467
1.68106
1.93596
2.18263
2.44233
2.64319
3.01862
2.77098
4.6002
-5.98484
-4.37012
-4.39154
-3.91298
-3.58259
-3.21802
-2.87589
-2.53955
-2.214
-1.8974
-1.58963
-1.28988
-0.997422
-0.711434
-0.431125
-0.155737
0.115422
0.382959
0.647369
0.909049
1.16821
1.42513
1.67927
1.93223
2.17786
2.43539
2.63967
3.00124
2.80512
4.45094
-5.79574
-4.33481
-4.30956
-3.84346
-3.51152
-3.15035
-2.81097
-2.47834
-2.15684
-1.84469
-1.54163
-1.24677
-0.959287
-0.678285
-0.402901
-0.132308
0.134246
0.397425
0.657784
0.915768
1.17164
1.42571
1.67752
1.92851
2.17312
2.42857
2.63632
2.98406
2.83989
4.2995
-5.60258
-4.29768
-4.2238
-3.76948
-3.43546
-3.07738
-2.74066
-2.41178
-2.09454
-1.78717
-1.48923
-1.19972
-0.917719
-0.642222
-0.372274
-0.106968
0.154526
0.412944
0.668903
0.92291
1.17529
1.42636
1.67578
1.92481
2.16845
2.42195
2.63322
2.96739
2.8749
4.14791
-5.40811
-4.25831
-4.13472
-3.6913
-3.35467
-2.99934
-2.66515
-2.34008
-2.0273
-1.72501
-1.43259
-1.14891
-0.87288
-0.603398
-0.339392
-0.0798551
0.176135
0.429395
0.680619
0.930379
1.17906
1.42703
1.674
1.9211
2.16388
2.41559
2.63046
2.95154
2.90958
3.99921
-5.21418
-4.21451
-4.04186
-3.60828
-3.26854
-2.91563
-2.58388
-2.26272
-1.95466
-1.65783
-1.3714
-1.09406
-0.824565
-0.561663
-0.304154
-0.0509116
0.19909
0.446762
0.692885
0.938105
1.18288
1.42761
1.6721
1.91732
2.15937
2.40954
2.62819
2.93688
2.94287
3.85797
-5.02273
-4.15812
-3.94292
-3.51703
-3.17384
-2.82302
-2.49374
-2.17677
-1.8739
-1.58317
-1.30346
-1.03326
-0.771137
-0.515651
-0.265453
-0.0192797
0.224019
0.465464
0.705934
0.946161
1.18668
1.42794
1.66985
1.91324
2.15471
2.40373
2.62622
2.92452
2.9706
3.73386
-4.85187
-4.07452
-3.84466
-3.41649
-3.07187
-2.72176
-2.3951
-2.0824
-1.78515
-1.5011
-1.22883
-0.966594
-0.71271
-0.465545
-0.223561
0.0146681
0.250439
0.484904
0.719059
0.953739
1.18957
1.42708
1.66623
1.90789
2.14866
2.39793
2.62158
2.92018
2.97566
3.65106
64.4384
-48.1037
35.204
-2.17469
10.4886
6.51668
7.62398
7.21908
7.2751
7.20417
7.1746
7.13752
7.1052
7.07348
7.04271
7.01212
6.98134
6.9496
6.91726
6.88017
6.85057
6.77966
6.83572
6.43063
7.53902
3.56198
16.2439
-21.1982
62.2685
-50.5087
54.7088
-31.9373
24.3227
2.4444
9.06096
6.96587
7.52241
7.26874
7.27801
7.21635
7.18141
7.1432
7.10898
7.07572
7.04343
7.01137
6.97907
6.94579
6.91155
6.87332
6.83836
6.77671
6.78599
6.53224
7.08912
4.99166
11.6167
-10.2958
46.0654
-40.7592
48.8716
-22.1493
19.1171
4.13812
8.6701
7.10557
7.50742
7.29449
7.28661
7.22653
7.18823
7.14849
7.11256
7.07782
7.04411
7.01066
6.97694
6.94219
6.90623
6.86647
6.82815
6.76807
6.76018
6.54717
6.94913
5.38286
9.92017
-5.08118
36.2546
-34.9099
44.0481
-15.353
16.1459
5.0336
8.45473
7.20774
7.50094
7.31837
7.29559
7.23646
7.19489
7.15364
7.11601
7.07985
7.04477
7.00998
6.97489
6.93871
6.90105
6.85977
6.81818
6.75905
6.73622
6.55354
6.84666
5.59831
9.02296
-2.10581
29.4422
-30.0762
39.7433
-10.3003
14.3156
5.58591
8.33053
7.28342
7.50181
7.34051
7.30539
7.24631
7.2016
7.15876
7.11943
7.08185
7.04541
7.00931
6.97286
6.93526
6.8959
6.85303
6.80829
6.74918
6.71396
6.55252
6.77065
5.72235
8.46924
-0.273613
24.3775
-25.7621
35.9552
-6.56022
13.1886
5.98031
8.24854
7.35157
7.50508
7.36181
7.31567
7.25607
7.2083
7.16381
7.12279
7.08381
7.04604
7.00865
6.97087
6.93187
6.89081
6.84628
6.79846
6.73882
6.69252
6.54906
6.70212
5.80403
8.07348
0.853927
20.6287
-21.9659
32.6232
-3.83867
12.4893
6.30155
8.1925
7.41685
7.51117
7.38198
7.32622
7.26559
7.21488
7.1687
7.12603
7.08569
7.04664
7.00802
6.96896
6.92859
6.88588
6.83965
6.78887
6.72816
6.67217
6.54271
6.6364
5.85962
7.75082
1.5531
17.9008
-18.6267
29.6718
-1.8696
12.0061
6.59386
8.15189
7.48143
7.52028
7.40116
7.33677
7.27471
7.22119
7.17332
7.12907
7.08745
7.0472
7.00744
6.96717
6.92552
6.88122
6.83328
6.77967
6.71747
6.65278
6.53329
6.57131
5.89967
7.45707
2.03594
15.9272
-15.6689
27.0385
-0.440228
11.6031
6.86671
8.12097
7.54431
7.53238
7.4194
7.34708
7.28323
7.22706
7.17754
7.13183
7.08902
7.0477
7.00691
6.96557
6.92272
6.87694
6.82734
6.77103
6.70699
6.63428
6.52082
6.50786
5.92993
7.18278
2.43858
14.4945
-13.0299
24.6729
0.610048
11.2043
7.11223
8.09435
7.60278
7.54651
7.43654
7.35683
7.29094
7.23229
7.18123
7.1342
7.09037
7.04812
7.00646
6.9642
6.92031
6.8732
6.82203
6.7632
6.69704
6.61686
6.50628
6.44879
5.95584
6.93591
2.83724
13.4419
-10.6592
22.5332
1.39952
10.7744
7.31719
8.06589
7.65316
7.56077
7.452
7.36556
7.29753
7.23664
7.18421
7.13608
7.0914
7.04845
7.00612
6.96313
6.91839
6.87016
6.81758
6.75646
6.6881
6.60108
6.49157
6.39777
5.98358
6.72974
3.26713
12.6507
-8.51503
20.5857
2.01295
10.3047
7.46988
8.02907
7.69147
7.57254
7.46476
7.37261
7.30259
7.23982
7.18627
7.13731
7.09206
7.04864
7.0059
6.96245
6.91712
6.86803
6.8143
6.75124
6.6808
6.58797
6.47933
6.35883
6.0197
6.57602
3.73707
12.0359
-6.56339
18.8029
2.50888
9.80173
7.56331
7.97779
7.71387
7.57879
7.4734
7.37713
7.30562
7.24146
7.18718
7.13774
7.09224
7.04869
7.00584
6.96224
6.91665
6.86706
6.81254
6.74804
6.67603
6.57898
6.4726
6.33582
6.07032
6.48177
4.24046
11.5389
-4.77683
17.163
2.92603
9.27955
7.59609
7.9073
7.71717
7.57648
7.47622
7.37806
7.30599
7.24118
7.18666
7.1372
7.09186
7.04854
7.00597
6.9626
6.91714
6.8675
6.81271
6.7475
6.67483
6.5758
6.47443
6.33195
6.14023
6.44839
4.76317
11.1209
-3.13348
15.6488
3.28858
8.7543
7.57182
7.8147
7.69908
7.56291
7.47148
7.37427
7.30298
7.23849
7.18442
7.1355
7.0908
7.04818
7.00632
6.96364
6.9188
6.86967
6.81528
6.75031
6.67836
6.58018
6.48754
6.34953
6.23233
6.47225
5.28901
10.7577
-1.61602
14.2466
3.61066
8.24085
7.49782
7.69924
7.65844
7.53596
7.45758
7.36459
7.29587
7.23292
7.18014
7.13244
7.08895
7.04756
7.00693
6.96547
6.92183
6.87388
6.82073
6.75724
6.68777
6.59374
6.51407
6.38972
6.3474
6.54604
5.8031
10.435
-0.21083
12.9458
3.89977
7.75101
7.38349
7.56212
7.59528
7.49428
7.43319
7.34798
7.28392
7.22396
7.17349
7.12781
7.08621
7.04665
7.00784
6.9682
6.92643
6.88046
6.82957
6.76901
6.70414
6.6178
6.55537
6.4525
6.48423
6.6603
6.29359
10.1455
1.09276
11.7379
4.15939
7.29293
7.23897
7.40615
7.51074
7.43733
7.39745
7.32356
7.26647
7.21116
7.16416
7.12141
7.08245
7.04542
7.00908
6.97195
6.93279
6.88973
6.84226
6.78629
6.72832
6.65326
6.61198
6.53674
6.64001
6.8049
6.75231
9.88563
2.30321
10.6163
4.39086
6.87124
7.07396
7.23523
7.40692
7.36537
7.34996
7.29074
7.24301
7.19412
7.15188
7.11307
7.07759
7.04382
7.01068
6.97681
6.94111
6.90195
6.8592
6.8096
6.76092
6.70048
6.68365
6.64034
6.81085
6.9701
7.17463
9.65401
3.42726
9.5754
4.59465
6.48756
6.89698
7.05379
7.2866
7.27939
7.29084
7.24925
7.21318
7.17252
7.13641
7.10262
7.07153
7.04184
7.01268
6.98287
6.95154
6.91736
6.8807
6.83928
6.80222
6.75937
6.76941
6.76051
6.99229
7.14736
7.55893
9.45019
4.47045
8.61049
4.77112
6.14128
6.71498
6.86635
7.15304
7.18093
7.22071
7.19913
7.17684
7.14617
7.1176
7.08996
7.0642
7.03945
7.01509
6.99021
6.96419
6.93613
6.90696
6.87548
6.85217
6.82932
6.8677
6.89401
7.17983
7.32972
7.90582
9.27382
5.43746
7.71749
4.92092
5.83026
6.53323
6.67706
7.00962
7.07194
7.14054
7.14075
7.13407
7.11504
7.09536
7.075
7.05556
7.03663
7.01793
6.99886
6.97913
6.95833
6.93801
6.91814
6.9104
6.90934
6.97657
7.03744
7.36929
7.5119
8.21744
9.12422
6.33239
6.8927
5.04516
5.55154
6.35541
6.48952
6.8597
6.95461
7.05166
7.07476
7.08512
7.07919
7.06969
7.05774
7.04559
7.03337
7.0212
7.00883
6.99638
6.98395
6.97379
6.96699
6.97628
6.99812
7.09385
7.18744
7.55706
7.69018
8.49675
9.00028
7.15895
6.13263
5.1454
5.30183
6.18391
6.3066
6.70636
6.8312
6.95557
7.00201
7.03046
7.03885
7.0407
7.03821
7.0343
7.02968
7.0249
7.02013
7.0159
7.01291
7.01407
7.02157
7.04894
7.09415
7.21726
7.34093
7.74027
7.8622
8.74704
8.90042
7.92063
5.43396
5.22355
5.07788
6.02006
6.13045
6.55233
6.70392
6.85388
6.92354
6.9707
6.99435
7.00857
7.01649
7.02174
7.02557
7.02902
7.03269
7.0376
7.04501
7.05852
7.08126
7.12734
7.19581
7.3446
7.49516
7.91677
8.02661
8.97158
8.82272
8.62075
4.79347
5.28177
4.87671
5.86444
5.96252
6.39989
6.57482
6.74823
6.84048
6.90657
6.94613
6.97354
6.99275
7.00796
7.02106
7.03352
7.04645
7.06132
7.07999
7.10668
7.14534
7.21036
7.30147
7.4738
7.64785
8.08509
8.1828
9.17332
8.76501
9.26255
4.20799
5.32229
4.6957
5.71717
5.80368
6.25089
6.44571
6.64019
6.754
6.83887
6.89473
6.93595
6.96715
6.99309
7.01617
7.03839
7.0613
7.08688
7.11754
7.15803
7.21299
7.29683
7.40956
7.60306
7.79715
8.24436
8.33067
9.35489
8.72503
9.84919
3.67442
5.34735
4.53266
5.57808
5.65433
6.10671
6.31817
6.53121
6.66524
6.76844
6.84071
6.89617
6.93994
6.97722
7.01095
7.04357
7.07712
7.11404
7.15727
7.212
7.28339
7.38559
7.51862
7.73078
7.94167
8.39416
8.47036
9.51849
8.70054
10.3838
3.18973
5.35908
4.38574
5.44688
5.51454
5.96837
6.19349
6.42259
6.57532
6.69613
6.78467
6.8546
6.91136
6.9605
7.00543
7.04902
7.09377
7.14255
7.19877
7.26798
7.35566
7.47553
7.62734
7.85569
8.08038
8.53442
8.60216
9.66594
8.6894
10.8694
2.75095
5.35944
4.25343
5.32324
5.38416
5.83654
6.07268
6.31547
6.48525
6.62277
6.72724
6.81168
6.88169
6.94309
6.99966
7.0547
7.11109
7.17213
7.24161
7.32535
7.429
7.56564
7.7346
7.97674
8.21259
8.66529
8.7264
9.79876
8.68962
11.3089
2.35518
5.35023
4.13447
5.20687
5.26287
5.71165
5.95654
6.21078
6.39594
6.54912
6.66902
6.76783
6.85123
6.92515
6.9937
7.06054
7.12892
7.20248
7.28535
7.3835
7.50262
7.655
7.83943
8.09316