/*--------------------------------*- C++ -*----------------------------------*\
| =========                 |                                                 |
| \\      /  F ield         | OpenFOAM: The Open Source CFD Toolbox           |
|  \\    /   O peration     | Version:  2.4.0                                 |
|   \\  /    A nd           | Web:      www.OpenFOAM.org                      |
|    \\/     M anipulation  |                                                 |
\*---------------------------------------------------------------------------*/
FoamFile
{
    version     2.0;
    format      ascii;
    class       surfaceScalarField;
    location    "0.01";
    object      phi;
}
// * * * * * * * * * * * * * * * * * * * * * * * * * * * * * * * * * * * * * //

dimensions      [0 3 -1 0 0 0 0];

internalField   nonuniform List<scalar> 
14230
(
5.82772e-15
-3.77894e-14
-1.10879e-13
1.16707e-13
1.15278e-13
-2.26157e-13
-1.26902e-13
2.42179e-13
-2.49552e-14
-1.01948e-13
-8.74809e-14
6.2524e-14
-6.95169e-14
-1.79659e-14
-8.45078e-14
1.49889e-14
-8.31302e-14
-1.37947e-15
-8.49853e-14
1.85337e-15
-8.31999e-14
-1.7871e-15
-8.0378e-14
-2.8234e-15
-7.59675e-14
-4.41201e-15
-7.04534e-14
-5.5156e-15
-6.40104e-14
-6.4443e-15
-5.69164e-14
-7.09542e-15
-4.94356e-14
-7.48213e-15
-4.17999e-14
-7.63712e-15
-3.4301e-14
-7.50031e-15
-2.73636e-14
-6.93903e-15
-1.93114e-14
-8.0538e-15
-2.12665e-14
1.95317e-15
1.56077e-14
-3.68762e-14
-9.51826e-14
1.10788e-13
2.71669e-13
-3.66854e-13
-8.77542e-13
1.14921e-12
2.29458e-12
-3.17212e-12
-3.51379e-12
5.80837e-12
1.70263e-12
-5.21642e-12
3.69432e-12
-1.99169e-12
-5.38407e-14
-1.02764e-13
-1.99361e-13
2.62227e-13
5.42494e-14
-4.79769e-13
-2.02769e-13
4.99195e-13
-1.72954e-13
-1.31764e-13
-2.53574e-13
1.43142e-13
-2.61976e-13
-9.56574e-15
-2.88447e-13
4.14572e-14
-2.98154e-13
8.32565e-15
-3.04099e-13
7.79572e-15
-3.0267e-13
-3.21849e-15
-2.95707e-13
-9.78815e-15
-2.83573e-13
-1.65475e-14
-2.67105e-13
-2.19859e-14
-2.47112e-13
-2.64392e-14
-2.24442e-13
-2.97667e-14
-2.00022e-13
-3.19039e-14
-1.74651e-13
-3.30102e-14
-1.49479e-13
-3.26742e-14
-1.24881e-13
-3.15394e-14
-1.02132e-13
-3.08047e-14
-8.48437e-14
-1.53375e-14
-5.15164e-14
-7.02061e-14
-1.12131e-13
1.714e-13
1.38669e-13
-6.17656e-13
-5.19695e-13
1.80757e-12
1.58319e-12
-5.27501e-12
-3.74701e-12
1.11386e-11
1.60226e-12
-1.05657e-11
9.39477e-12
-4.09819e-12
-1.62013e-13
-1.7133e-13
-3.08421e-13
4.08635e-13
-1.02288e-13
-6.85903e-13
-2.66862e-13
6.63769e-13
-3.4117e-13
-5.74579e-14
-4.37209e-13
2.39179e-13
-4.88394e-13
4.16169e-14
-5.30775e-13
8.38364e-14
-5.57566e-13
3.51143e-14
-5.7194e-13
2.21681e-14
-5.74432e-13
-7.28424e-16
-5.65944e-13
-1.8278e-14
-5.47709e-13
-3.47844e-14
-5.20929e-13
-4.87683e-14
-4.87036e-13
-6.03334e-14
-4.47499e-13
-6.93057e-14
-4.03939e-13
-7.54663e-14
-3.57865e-13
-7.90859e-14
-3.11268e-13
-7.92728e-14
-2.64854e-13
-7.79557e-14
-2.22947e-13
-7.27141e-14
-1.79907e-13
-5.83798e-14
-1.55715e-13
-9.4401e-14
-1.1254e-13
1.28223e-13
-9.08201e-14
-6.39378e-13
-2.78833e-14
1.74463e-12
-1.10143e-13
-5.19275e-12
-2.4335e-12
1.34619e-11
4.00753e-13
-1.33999e-11
1.57557e-11
-5.96015e-12
-3.04097e-13
-2.35707e-13
-4.69847e-13
5.74384e-13
-3.13459e-13
-8.42292e-13
-3.97117e-13
7.47426e-13
-5.22415e-13
6.78382e-14
-6.53078e-13
3.6984e-13
-7.47724e-13
1.3626e-13
-8.16885e-13
1.52996e-13
-8.64976e-13
8.32041e-14
-8.92985e-13
5.01745e-14
-9.02876e-13
9.16117e-15
-8.95665e-13
-2.54914e-14
-8.73055e-13
-5.73968e-14
-8.36735e-13
-8.509e-14
-7.88723e-13
-1.08347e-13
-7.31162e-13
-1.26868e-13
-6.66409e-13
-1.40221e-13
-5.96835e-13
-1.48662e-13
-5.25193e-13
-1.50917e-13
-4.53441e-13
-1.49711e-13
-3.86217e-13
-1.39941e-13
-3.19755e-13
-1.24844e-13
-2.76132e-13
-1.38026e-13
-1.96696e-13
4.87856e-14
-2.262e-13
-6.09876e-13
-1.06061e-13
1.62449e-12
-1.07387e-12
-4.22494e-12
-1.59394e-12
1.3982e-11
-1.10414e-12
-1.38897e-11
2.28598e-11
-8.20826e-12
-4.77984e-13
-2.8963e-13
-6.75904e-13
7.72304e-13
-5.84619e-13
-9.33577e-13
-6.0695e-13
7.69756e-13
-7.44776e-13
2.05663e-13
-9.07192e-13
5.32255e-13
-1.04658e-12
2.75647e-13
-1.14997e-12
2.56381e-13
-1.22476e-12
1.57997e-13
-1.27136e-12
9.6766e-14
-1.2925e-12
3.03066e-14
-1.28953e-12
-2.84708e-14
-1.2645e-12
-8.24242e-14
-1.2196e-12
-1.29989e-13
-1.15743e-12
-1.70524e-13
-1.08082e-12
-2.03474e-13
-9.92942e-13
-2.28106e-13
-8.97107e-13
-2.44498e-13
-7.96983e-13
-2.51043e-13
-6.9592e-13
-2.50775e-13
-5.99122e-13
-2.36741e-13
-5.05563e-13
-2.18405e-13
-4.36857e-13
-2.06734e-13
-3.40253e-13
-4.78206e-14
-4.20778e-13
-5.29353e-13
-3.93072e-13
1.59679e-12
-1.59216e-12
-3.02586e-12
-1.25785e-12
1.36477e-11
-3.01578e-12
-1.21318e-11
3.05962e-11
-1.07522e-11
-6.81907e-13
-3.2905e-13
-9.20659e-13
1.01105e-12
-9.12428e-13
-9.41809e-13
-9.02325e-13
7.59653e-13
-1.03052e-12
3.33854e-13
-1.21266e-12
7.14395e-13
-1.39332e-12
4.56309e-13
-1.53529e-12
3.98346e-13
-1.64174e-12
2.64444e-13
-1.71169e-12
1.6672e-13
-1.74808e-12
6.669e-14
-1.75246e-12
-2.40949e-14
-1.72719e-12
-1.07693e-13
-1.6749e-12
-1.82282e-13
-1.59873e-12
-2.46691e-13
-1.50227e-12
-2.99942e-13
-1.3895e-12
-3.40872e-13
-1.26481e-12
-3.69198e-13
-1.13293e-12
-3.82925e-13
-9.98766e-13
-3.84937e-13
-8.68583e-13
-3.66926e-13
-7.45006e-13
-3.41983e-13
-6.5057e-13
-3.01173e-13
-5.54106e-13
-1.44286e-13
-6.82942e-13
-4.00518e-13
-7.34522e-13
1.64837e-12
-1.90855e-12
-1.85183e-12
-1.49755e-12
1.32367e-11
-5.3374e-12
-8.29197e-12
3.8818e-11
-1.35592e-11
-9.15295e-13
-3.5167e-13
-1.19917e-12
1.29493e-12
-1.28926e-12
-8.51721e-13
-1.28186e-12
7.52261e-13
-1.3948e-12
4.46785e-13
-1.58401e-12
9.03609e-13
-1.79845e-12
6.7075e-13
-1.9798e-12
5.79692e-13
-2.12152e-12
4.0616e-13
-2.21912e-12
2.64316e-13
-2.27466e-12
1.22231e-13
-2.28962e-12
-9.13572e-15
-2.26649e-12
-1.30826e-13
-2.20824e-12
-2.40538e-13
-2.11853e-12
-3.36397e-13
-2.00167e-12
-4.16803e-13
-1.86256e-12
-4.79985e-13
-1.70669e-12
-5.25065e-13
-1.54011e-12
-5.49512e-13
-1.36947e-12
-5.55579e-13
-1.2028e-12
-5.33595e-13
-1.04727e-12
-4.97521e-13
-9.29089e-13
-4.19352e-13
-8.40142e-13
-2.33235e-13
-9.98498e-13
-2.42162e-13
-1.09346e-12
1.74333e-12
-2.24732e-12
-6.97979e-13
-2.36543e-12
1.33548e-11
-8.03622e-12
-2.62118e-12
4.73744e-11
-1.65926e-11
-1.17868e-12
-3.56344e-13
-1.50805e-12
1.62429e-12
-1.70664e-12
-6.53131e-13
-1.7382e-12
7.83818e-13
-1.845e-12
5.5359e-13
-2.03374e-12
1.09235e-12
-2.27315e-12
9.10152e-13
-2.49166e-12
7.98202e-13
-2.67048e-12
5.84985e-13
-2.79919e-12
3.93019e-13
-2.87756e-12
2.006e-13
-2.90636e-12
1.96678e-14
-2.88793e-12
-1.49258e-13
-2.82544e-12
-3.03036e-13
-2.72299e-12
-4.38846e-13
-2.5856e-12
-5.54199e-13
-2.4191e-12
-6.46485e-13
-2.23022e-12
-7.13943e-13
-2.0265e-12
-7.53237e-13
-1.81665e-12
-7.6543e-13
-1.61121e-12
-7.3904e-13
-1.42261e-12
-6.8612e-13
-1.2819e-12
-5.60058e-13
-1.19887e-12
-3.16273e-13
-1.36699e-12
-7.40422e-14
-1.51333e-12
1.88967e-12
-2.80709e-12
5.9578e-13
-3.87004e-12
1.44178e-11
-1.10698e-11
4.57858e-12
5.61111e-11
-1.98065e-11
-1.47351e-12
-3.42537e-13
-1.84589e-12
1.99667e-12
-2.15714e-12
-3.41883e-13
-2.26054e-12
8.87219e-13
-2.38128e-12
6.74332e-13
-2.57011e-12
1.28118e-12
-2.82747e-12
1.16751e-12
-3.07931e-12
1.05003e-12
-3.29543e-12
8.0111e-13
-3.45775e-12
5.55335e-13
-3.56224e-12
3.05087e-13
-3.60812e-12
6.55516e-14
-3.59715e-12
-1.60229e-13
-3.53246e-12
-3.67726e-13
-3.41851e-12
-5.52805e-13
-3.26095e-12
-7.11761e-13
-3.06661e-12
-8.40828e-13
-2.84354e-12
-9.37013e-13
-2.601e-12
-9.95777e-13
-2.3501e-12
-1.01633e-12
-2.10453e-12
-9.8461e-13
-1.88234e-12
-9.08311e-13
-1.71932e-12
-7.23079e-13
-1.63869e-12
-3.96904e-13
-1.81728e-12
1.04545e-13
-2.0852e-12
2.15759e-12
-3.74372e-12
2.2543e-12
-5.98407e-12
1.66581e-11
-1.43859e-11
1.29804e-11
6.48764e-11
-2.31512e-11
-1.80186e-12
-3.09878e-13
-2.21313e-12
2.40795e-12
-2.63548e-12
8.04628e-14
-2.83718e-12
1.08892e-12
-2.99812e-12
8.35265e-13
-3.19627e-12
1.47933e-12
-3.46892e-12
1.44017e-12
-3.75044e-12
1.33155e-12
-4.00306e-12
1.05372e-12
-4.20065e-12
7.52923e-13
-4.33414e-12
4.38578e-13
-4.4003e-12
1.31711e-13
-4.39976e-12
-1.60772e-13
-4.33533e-12
-4.32163e-13
-4.21162e-12
-6.76509e-13
-4.03492e-12
-8.88463e-13
-3.81305e-12
-1.0627e-12
-3.55551e-12
-1.19456e-12
-3.27352e-12
-1.27777e-12
-2.98093e-12
-1.30892e-12
-2.69516e-12
-1.27038e-12
-2.44006e-12
-1.16341e-12
-2.25664e-12
-9.06505e-13
-2.18341e-12
-4.70132e-13
-2.40685e-12
3.27988e-13
-2.91812e-12
2.66886e-12
-5.16138e-12
4.49756e-12
-8.6521e-12
2.01488e-11
-1.79254e-11
2.22537e-11
7.35277e-11
-2.65768e-11
-2.16618e-12
-2.57828e-13
-2.61173e-12
2.85349e-12
-3.13906e-12
6.07796e-13
-3.45752e-12
1.40738e-12
-3.6865e-12
1.06424e-12
-3.9105e-12
1.70334e-12
-4.20152e-12
1.73118e-12
-4.51107e-12
1.6411e-12
-4.79933e-12
1.34199e-12
-5.03338e-12
9.86973e-13
-5.19848e-12
6.03675e-13
-5.28812e-12
2.21347e-13
-5.30124e-12
-1.47651e-13
-5.23998e-12
-4.93427e-13
-5.10895e-12
-8.07541e-13
-4.91495e-12
-1.08246e-12
-4.66684e-12
-1.31081e-12
-4.37571e-12
-1.48569e-12
-4.05502e-12
-1.59846e-12
-3.72179e-12
-1.64216e-12
-3.39776e-12
-1.5944e-12
-3.11336e-12
-1.44781e-12
-2.91767e-12
-1.1022e-12
-2.87405e-12
-5.13759e-13
-3.2122e-12
6.66145e-13
-4.11467e-12
3.57133e-12
-7.11192e-12
7.4948e-12
-1.17984e-11
2.48353e-11
-2.16261e-11
3.20814e-11
8.19366e-11
-3.00349e-11
-2.56909e-12
-1.85469e-13
-3.0446e-12
3.32901e-12
-3.66783e-12
1.23102e-12
-4.11329e-12
1.85284e-12
-4.43602e-12
1.38697e-12
-4.70723e-12
1.97455e-12
-5.02558e-12
2.04953e-12
-5.36479e-12
1.98031e-12
-5.6889e-12
1.6661e-12
-5.96069e-12
1.25876e-12
-6.15996e-12
8.0294e-13
-6.2764e-12
3.37791e-13
-6.30678e-12
-1.17279e-13
-6.25218e-12
-5.48026e-13
-6.11702e-12
-9.42703e-13
-5.90855e-12
-1.29093e-12
-5.63673e-12
-1.58263e-12
-5.31439e-12
-1.80803e-12
-4.95759e-12
-1.95526e-12
-4.58707e-12
-2.01267e-12
-4.22995e-12
-1.95153e-12
-3.92517e-12
-1.7526e-12
-3.73603e-12
-1.29133e-12
-3.76546e-12
-4.84331e-13
-4.31531e-12
1.21599e-12
-5.75391e-12
5.00993e-12
-9.59988e-12
1.13408e-11
-1.53349e-11
3.05703e-11
-2.54262e-11
4.21727e-11
8.99911e-11
-3.34807e-11
-3.01314e-12
-9.1396e-14
-3.51523e-12
3.83109e-12
-4.22386e-12
1.93965e-12
-4.79926e-12
2.42824e-12
-5.23672e-12
1.82443e-12
-5.57847e-12
2.3163e-12
-5.93814e-12
2.4092e-12
-6.31257e-12
2.35474e-12
-6.67467e-12
2.0282e-12
-6.98621e-12
1.5703e-12
-7.22251e-12
1.03924e-12
-7.36941e-12
4.84686e-13
-7.4211e-12
-6.55904e-14
-7.37735e-12
-5.91776e-13
-7.24218e-12
-1.07787e-12
-7.02326e-12
-1.50985e-12
-6.73171e-12
-1.87419e-12
-6.38237e-12
-2.15738e-12
-5.99438e-12
-2.34325e-12
-5.59308e-12
-2.41397e-12
-5.21259e-12
-2.33203e-12
-4.90399e-12
-2.06119e-12
-4.75361e-12
-1.44171e-12
-4.91926e-12
-3.18676e-13
-5.79021e-12
2.08694e-12
-7.88195e-12
7.10167e-12
-1.25908e-11
1.60497e-11
-1.91678e-11
3.71473e-11
-2.92673e-11
5.22722e-11
9.75972e-11
-3.68734e-11
-3.50074e-12
2.62992e-14
-4.0272e-12
4.35756e-12
-4.81074e-12
2.72319e-12
-5.51317e-12
3.13067e-12
-6.0803e-12
2.39155e-12
-6.51522e-12
2.75122e-12
-6.9337e-12
2.82769e-12
-7.35281e-12
2.77384e-12
-7.75758e-12
2.43297e-12
-8.11216e-12
1.92487e-12
-8.38905e-12
1.31613e-12
-8.57058e-12
6.66218e-13
-8.64828e-12
1.21096e-14
-8.62039e-12
-6.19672e-13
-8.4904e-12
-1.20786e-12
-8.2664e-12
-1.73386e-12
-7.96081e-12
-2.17978e-12
-7.59087e-12
-2.52731e-12
-7.17949e-12
-2.75463e-12
-6.75784e-12
-2.83563e-12
-6.36951e-12
-2.72035e-12
-6.08281e-12
-2.3479e-12
-6.01674e-12
-1.50778e-12
-6.39518e-12
5.97676e-14
-7.69234e-12
3.3841e-12
-1.05091e-11
9.91847e-12
-1.60214e-11
2.15619e-11
-2.32042e-11
4.43301e-11
-3.30958e-11
6.21637e-11
1.04678e-10
-4.0177e-11
-4.03402e-12
1.69996e-13
-4.58391e-12
4.90744e-12
-5.43286e-12
3.57214e-12
-6.25542e-12
3.95324e-12
-6.96086e-12
3.09699e-12
-7.50883e-12
3.29919e-12
-8.00522e-12
3.32408e-12
-8.48171e-12
3.25033e-12
-8.93657e-12
2.88783e-12
-9.33921e-12
2.32751e-12
-9.66128e-12
1.63821e-12
-9.88241e-12
8.87344e-13
-9.9916e-12
1.21297e-13
-9.9855e-12
-6.25769e-13
-9.86708e-12
-1.32629e-12
-9.64487e-12
-1.95607e-12
-9.33289e-12
-2.49176e-12
-8.95125e-12
-2.90895e-12
-8.52756e-12
-3.17831e-12
-8.10055e-12
-3.26265e-12
-7.72651e-12
-3.09439e-12
-7.49662e-12
-2.57779e-12
-7.57094e-12
-1.43346e-12
-8.2428e-12
7.31621e-13
-1.00518e-11
5.19307e-12
-1.36124e-11
1.34791e-11
-1.98095e-11
2.7759e-11
-2.73566e-11
5.18772e-11
-3.68639e-11
7.1671e-11
1.11175e-10
-4.33605e-11
-4.61487e-12
3.4248e-13
-5.18837e-12
5.48093e-12
-6.09489e-12
4.47867e-12
-7.02839e-12
4.88674e-12
-7.87507e-12
3.94367e-12
-8.55184e-12
3.97596e-12
-9.14507e-12
3.9173e-12
-9.69389e-12
3.79914e-12
-1.02088e-11
3.40274e-12
-1.06664e-11
2.78514e-12
-1.10396e-11
2.01136e-12
-1.13062e-11
1.15399e-12
-1.14533e-11
2.68371e-13
-1.1476e-11
-6.03075e-13
-1.13768e-11
-1.42549e-12
-1.11649e-11
-2.16798e-12
-1.08563e-11
-2.80041e-12
-1.04745e-11
-3.29068e-12
-1.00532e-11
-3.59961e-12
-9.6407e-12
-3.67517e-12
-9.30954e-12
-3.42556e-12
-9.1791e-12
-2.70823e-12
-9.45534e-12
-1.15722e-12
-1.04951e-11
1.77133e-12
-1.28707e-11
7.5687e-12
-1.71409e-11
1.77493e-11
-2.38636e-11
3.44817e-11
-3.15457e-11
5.95593e-11
-4.05306e-11
8.0656e-11
1.17042e-10
-4.63974e-11
-5.24488e-12
5.46872e-13
-5.84311e-12
6.07917e-12
-6.80131e-12
5.43687e-12
-7.83575e-12
5.92118e-12
-8.82196e-12
4.92988e-12
-9.63858e-12
4.79259e-12
-1.03459e-11
4.62461e-12
-1.0983e-11
4.43626e-12
-1.15699e-11
3.98968e-12
-1.20914e-11
3.30656e-12
-1.25229e-11
2.44288e-12
-1.28421e-11
1.47321e-12
-1.30345e-11
4.6075e-13
-1.30941e-11
-5.43482e-13
-1.30231e-11
-1.49645e-12
-1.28317e-11
-2.35936e-12
-1.25383e-11
-3.09384e-12
-1.21709e-11
-3.65811e-12
-1.17703e-11
-4.00023e-12
-1.13967e-11
-4.04873e-12
-1.11425e-11
-3.67979e-12
-1.11589e-11
-2.69183e-12
-1.16977e-11
-6.18405e-13
-1.31643e-11
3.23791e-12
-1.61245e-11
1.05289e-11
-2.10235e-11
2.26483e-11
-2.80904e-11
4.15487e-11
-3.5702e-11
6.71709e-11
-4.40608e-11
8.90148e-11
1.22246e-10
-4.92652e-11
-5.92533e-12
7.8657e-13
-6.55014e-12
6.70398e-12
-7.55602e-12
6.44275e-12
-8.68176e-12
7.04692e-12
-9.80242e-12
6.05054e-12
-1.07653e-11
5.75546e-12
-1.16012e-11
5.46049e-12
-1.23424e-11
5.17747e-12
-1.30146e-11
4.66191e-12
-1.36102e-11
3.90218e-12
-1.41088e-11
2.94147e-12
-1.44888e-11
1.85317e-12
-1.4735e-11
7.06908e-13
-1.48407e-11
-4.37757e-13
-1.48083e-11
-1.52883e-12
-1.46493e-11
-2.51837e-12
-1.43851e-11
-3.35808e-12
-1.4049e-11
-3.99419e-12
-1.36906e-11
-4.35859e-12
-1.33843e-11
-4.35501e-12
-1.32447e-11
-3.81944e-12
-1.34561e-11
-2.48038e-12
-1.43108e-11
2.36281e-13
-1.62409e-11
5.16796e-12
-1.97655e-11
1.40536e-11
-2.51765e-11
2.80593e-11
-3.2401e-11
4.87732e-11
-3.97671e-11
7.4537e-11
-4.74249e-11
9.66725e-11
1.26766e-10
-5.19449e-11
-6.65725e-12
1.06521e-12
-7.31095e-12
7.35768e-12
-8.36226e-12
7.49406e-12
-9.57074e-12
8.2554e-12
-1.08187e-11
7.29847e-12
-1.193e-11
6.86679e-12
-1.29056e-11
6.43606e-12
-1.37655e-11
6.03738e-12
-1.45368e-11
5.43319e-12
-1.52181e-11
4.58352e-12
-1.57937e-11
3.51703e-12
-1.62437e-11
2.30316e-12
-1.65531e-11
1.01633e-12
-1.67152e-11
-2.756e-13
-1.6733e-11
-1.51104e-12
-1.66198e-11
-2.63162e-12
-1.64006e-11
-3.57728e-12
-1.61152e-11
-4.27961e-12
-1.58233e-11
-4.65049e-12
-1.56151e-11
-4.56321e-12
-1.56287e-11
-3.80579e-12
-1.608e-11
-2.02914e-12
-1.72908e-11
1.44714e-12
-1.96946e-11
7.57176e-12
-2.37287e-11
1.80877e-11
-2.95114e-11
3.3842e-11
-3.67142e-11
5.59759e-11
-4.36923e-11
8.15151e-11
-5.05985e-11
1.03579e-10
1.30588e-10
-5.44206e-11
-7.44137e-12
1.38664e-12
-8.12656e-12
8.04287e-12
-9.22243e-12
8.58993e-12
-1.05066e-11
9.53954e-12
-1.18736e-11
8.66553e-12
-1.31322e-11
8.12535e-12
-1.4255e-11
7.55889e-12
-1.52462e-11
7.02858e-12
-1.61299e-11
6.31689e-12
-1.69091e-11
5.36274e-12
-1.75725e-11
4.18034e-12
-1.81027e-11
2.83336e-12
-1.84857e-11
1.39941e-12
-1.87156e-11
-4.57738e-14
-1.87962e-11
-1.43042e-12
-1.87433e-11
-2.68447e-12
-1.85865e-11
-3.73407e-12
-1.83728e-11
-4.49335e-12
-1.81732e-11
-4.85012e-12
-1.80946e-11
-4.64175e-12
-1.82984e-11
-3.60198e-12
-1.90266e-11
-1.30095e-12
-2.06168e-11
3.03735e-12
-2.34775e-11
1.04324e-11
-2.79375e-11
2.25477e-11
-3.39403e-11
3.98448e-11
-4.09593e-11
6.29949e-11
-4.74381e-11
8.7994e-11
-5.35608e-11
1.09701e-10
1.33706e-10
-5.66782e-11
-8.27809e-12
1.75494e-12
-8.99753e-12
8.76232e-12
-1.01381e-11
9.73053e-12
-1.14924e-11
1.08938e-11
-1.29703e-11
1.01434e-11
-1.43723e-11
9.52734e-12
-1.56465e-11
8.83311e-12
-1.67791e-11
8.16118e-12
-1.77876e-11
7.32537e-12
-1.86768e-11
6.25197e-12
-1.94392e-11
4.9427e-12
-2.00604e-11
3.45458e-12
-2.05282e-11
1.86718e-12
-2.08376e-11
2.63673e-13
-2.09945e-11
-1.27352e-12
-2.10176e-11
-2.66134e-12
-2.09416e-11
-3.81008e-12
-2.08215e-11
-4.61349e-12
-2.07403e-11
-4.93131e-12
-2.08218e-11
-4.56027e-12
-2.12479e-11
-3.17587e-12
-2.22792e-11
-2.69669e-13
-2.42526e-11
5.01076e-12
-2.7528e-11
1.37078e-11
-3.23099e-11
2.73297e-11
-3.83807e-11
4.59156e-11
-4.50762e-11
6.96903e-11
-5.09727e-11
9.38905e-11
-5.62943e-11
1.15023e-10
1.36117e-10
-5.87056e-11
-9.16744e-12
2.17445e-12
-9.92399e-12
9.51888e-12
-1.11102e-11
1.09168e-11
-1.25306e-11
1.23142e-11
-1.41114e-11
1.17242e-11
-1.56513e-11
1.10672e-11
-1.7078e-11
1.02598e-11
-1.83594e-11
9.44251e-12
-1.95033e-11
8.4693e-12
-2.0514e-11
7.26272e-12
-2.13867e-11
5.81541e-12
-2.21101e-11
4.17793e-12
-2.2674e-11
2.43108e-12
-2.30754e-11
6.65115e-13
-2.33225e-11
-1.02643e-12
-2.34377e-11
-2.5462e-12
-2.34611e-11
-3.78662e-12
-2.34565e-11
-4.61816e-12
-2.35188e-11
-4.86899e-12
-2.37874e-11
-4.29168e-12
-2.44607e-11
-2.50256e-12
-2.5808e-11
1.0776e-12
-2.81488e-11
7.35159e-12
-3.17755e-11
1.73345e-11
-3.67632e-11
3.23174e-11
-4.27581e-11
5.19105e-11
-4.90151e-11
7.59474e-11
-5.42702e-11
9.91456e-11
-5.87838e-11
1.19537e-10
1.37825e-10
-6.04916e-11
-1.0109e-11
2.6498e-12
-1.09056e-11
1.03155e-11
-1.21388e-11
1.21499e-11
-1.36223e-11
1.37977e-11
-1.5299e-11
1.34009e-11
-1.69702e-11
1.27384e-11
-1.8548e-11
1.18376e-11
-1.99826e-11
1.08771e-11
-2.12706e-11
9.75734e-12
-2.24133e-11
8.4054e-12
-2.34072e-11
6.80929e-12
-2.42437e-11
5.01441e-12
-2.49152e-11
3.10257e-12
-2.5421e-11
1.17099e-12
-2.57723e-11
-6.75205e-13
-2.59953e-11
-2.32313e-12
-2.61366e-11
-3.64537e-12
-2.62682e-11
-4.48658e-12
-2.64966e-11
-4.64055e-12
-2.69743e-11
-3.81394e-12
-2.79105e-11
-1.56638e-12
-2.95722e-11
2.73931e-12
-3.22465e-11
1.00258e-11
-3.61451e-11
2.12331e-11
-4.12185e-11
3.73908e-11
-4.70075e-11
5.76994e-11
-5.27355e-11
8.16755e-11
-5.73096e-11
1.0372e-10
-6.10159e-11
1.23243e-10
1.38835e-10
-6.20262e-11
-1.11018e-11
3.18595e-12
-1.19414e-11
1.11551e-11
-1.32231e-11
1.34316e-11
-1.4768e-11
1.53426e-11
-1.65343e-11
1.51672e-11
-1.83296e-11
1.45338e-11
-2.00549e-11
1.35628e-11
-2.16447e-11
1.2467e-11
-2.30832e-11
1.11958e-11
-2.43667e-11
9.68884e-12
-2.54916e-11
7.93427e-12
-2.64517e-11
5.97447e-12
-2.72419e-11
3.89273e-12
-2.78642e-11
1.79337e-12
-2.83331e-11
-2.06346e-13
-2.86794e-11
-1.97687e-12
-2.89555e-11
-3.36921e-12
-2.9242e-11
-4.20013e-12
-2.96553e-11
-4.22726e-12
-3.03575e-11
-3.11167e-12
-3.15618e-11
-3.62088e-13
-3.35222e-11
4.69966e-12
-3.64803e-11
1.29839e-11
-4.05611e-11
2.5314e-11
-4.56028e-11
4.24325e-11
-5.10735e-11
6.31702e-11
-5.62046e-11
8.68066e-11
-6.00732e-11
1.07588e-10
-6.29781e-11
1.26148e-10
1.39157e-10
-6.33001e-11
-1.21442e-11
3.78826e-12
-1.30301e-11
1.20409e-11
-1.43619e-11
1.47635e-11
-1.59668e-11
1.69475e-11
-1.78172e-11
1.70176e-11
-1.97295e-11
1.64461e-11
-2.15972e-11
1.54305e-11
-2.33417e-11
1.42115e-11
-2.49346e-11
1.27887e-11
-2.63657e-11
1.112e-11
-2.76303e-11
9.19889e-12
-2.87234e-11
7.06759e-12
-2.96426e-11
4.81185e-12
-3.03927e-11
2.54355e-12
-3.09918e-11
3.92682e-13
-3.14751e-11
-1.4935e-12
-3.19013e-11
-2.94301e-12
-3.23582e-11
-3.74329e-12
-3.29701e-11
-3.61536e-12
-3.39046e-11
-2.17711e-12
-3.53714e-11
1.10473e-12
-3.76014e-11
6.92965e-12
-4.07818e-11
1.61643e-11
-4.49506e-11
2.94828e-11
-4.98509e-11
4.73327e-11
-5.491e-11
6.82293e-11
-5.93956e-11
9.12922e-11
-6.25457e-11
1.10738e-10
-6.46592e-11
1.28261e-10
1.38802e-10
-6.43042e-11
-1.32338e-11
4.4625e-12
-1.41693e-11
1.29764e-11
-1.55529e-11
1.61471e-11
-1.72171e-11
1.86117e-11
-1.91468e-11
1.89473e-11
-2.11688e-11
1.84681e-11
-2.31726e-11
1.74343e-11
-2.50691e-11
1.6108e-11
-2.68179e-11
1.45375e-11
-2.84015e-11
1.27036e-11
-2.98126e-11
1.061e-11
-3.10468e-11
8.30185e-12
-3.2104e-11
5.86898e-12
-3.2992e-11
3.43154e-12
-3.37322e-11
1.13294e-12
-3.43647e-11
-8.61011e-13
-3.49534e-11
-2.35433e-12
-3.55921e-11
-3.10455e-12
-3.64106e-11
-2.79693e-12
-3.75769e-11
-1.01075e-12
-3.92901e-11
2.81793e-12
-4.17495e-11
9.38905e-12
-4.50826e-11
1.94974e-11
-4.9245e-11
3.36452e-11
-5.39056e-11
5.19933e-11
-5.84785e-11
7.28021e-11
-6.22863e-11
9.51e-11
-6.47134e-11
1.13165e-10
-6.60485e-11
1.29596e-10
1.37784e-10
-6.50303e-11
-1.43672e-11
5.2149e-12
-1.53559e-11
1.39651e-11
-1.67931e-11
1.75843e-11
-1.85159e-11
2.03345e-11
-2.05207e-11
2.09521e-11
-2.26452e-11
2.05926e-11
-2.4778e-11
1.95671e-11
-2.6822e-11
1.81519e-11
-2.87258e-11
1.64413e-11
-3.04643e-11
1.44421e-11
-3.20267e-11
1.21724e-11
-3.34085e-11
9.6836e-12
-3.4611e-11
7.07155e-12
-3.56452e-11
4.4657e-12
-3.65358e-11
2.02354e-12
-3.73269e-11
-6.98919e-14
-3.80871e-11
-1.59412e-12
-3.89146e-11
-2.27701e-12
-3.99412e-11
-1.77041e-12
-4.13305e-11
3.78631e-13
-4.32644e-11
4.7518e-12
-4.59042e-11
1.20288e-11
-4.9316e-11
2.29092e-11
-5.33821e-11
3.77114e-11
-5.7718e-11
5.63292e-11
-6.17471e-11
7.68312e-11
-6.48578e-11
9.82108e-11
-6.65637e-11
1.14871e-10
-6.71357e-11
1.30168e-10
1.36119e-10
-6.54705e-11
-1.55398e-11
6.05217e-12
-1.65859e-11
1.50111e-11
-1.80783e-11
1.90767e-11
-1.98592e-11
2.21154e-11
-2.19352e-11
2.30281e-11
-2.41553e-11
2.28128e-11
-2.64092e-11
2.1821e-11
-2.85945e-11
2.03372e-11
-3.06503e-11
1.84971e-11
-3.25439e-11
1.63356e-11
-3.42601e-11
1.38886e-11
-3.57936e-11
1.12171e-11
-3.7147e-11
8.42497e-12
-3.83335e-11
5.65223e-12
-3.93811e-11
3.07113e-12
-4.03374e-11
8.86375e-13
-4.12743e-11
-6.57152e-13
-4.22925e-11
-1.25888e-12
-4.35221e-11
-5.4078e-13
-4.51179e-11
1.97442e-12
-4.72386e-11
6.87246e-12
-5.00035e-11
1.47938e-11
-5.34193e-11
2.63249e-11
-5.73061e-11
4.15982e-11
-6.12461e-11
6.02692e-11
-6.46892e-11
8.02743e-11
-6.70937e-11
1.00615e-10
-6.80847e-11
1.15862e-10
-6.79114e-11
1.29995e-10
1.33825e-10
-6.56172e-11
-1.6746e-11
6.98148e-12
-1.78538e-11
1.61189e-11
-1.94033e-11
2.06262e-11
-2.12418e-11
2.3954e-11
-2.33852e-11
2.51714e-11
-2.5694e-11
2.51217e-11
-2.80607e-11
2.41877e-11
-3.03796e-11
2.26562e-11
-3.25824e-11
2.06998e-11
-3.46287e-11
1.83819e-11
-3.64989e-11
1.57588e-11
-3.8186e-11
1.29042e-11
-3.96934e-11
9.93234e-12
-4.1036e-11
6.99489e-12
-4.22445e-11
4.2796e-12
-4.3369e-11
2.01092e-12
-4.44837e-11
4.57536e-13
-4.5689e-11
-5.36251e-14
-4.71103e-11
8.80561e-13
-4.88888e-11
3.75292e-12
-5.11559e-11
9.13954e-12
-5.39873e-11
1.76252e-11
-5.73342e-11
2.96718e-11
-6.09678e-11
4.52318e-11
-6.44543e-11
6.37557e-11
-6.72823e-11
8.31022e-11
-6.89791e-11
1.02312e-10
-6.92654e-11
1.16149e-10
-6.83664e-11
1.29096e-10
1.30922e-10
-6.54636e-11
-1.79784e-11
8.01046e-12
-1.91529e-11
1.72933e-11
-2.07614e-11
2.22347e-11
-2.26571e-11
2.58497e-11
-2.4864e-11
2.73784e-11
-2.72547e-11
2.75123e-11
-2.97252e-11
2.66582e-11
-3.21691e-11
2.51001e-11
-3.45116e-11
2.30424e-11
-3.67061e-11
2.05764e-11
-3.87279e-11
1.77806e-11
-4.05681e-11
1.47444e-11
-4.22299e-11
1.15942e-11
-4.37297e-11
8.49468e-12
-4.50998e-11
5.6497e-12
-4.63921e-11
3.30322e-12
-4.76811e-11
1.74652e-12
-4.90647e-11
1.32999e-12
-5.06604e-11
2.47626e-12
-5.25919e-11
5.6844e-12
-5.49604e-11
1.1508e-11
-5.77983e-11
2.04631e-11
-6.1008e-11
3.28816e-11
-6.43242e-11
4.85479e-11
-6.73123e-11
6.67438e-11
-6.95066e-11
8.52965e-11
-7.05005e-11
1.03306e-10
-7.00951e-11
1.15743e-10
-6.84923e-11
1.27493e-10
1.27432e-10
-6.5003e-11
-1.92283e-11
9.14715e-12
-2.04749e-11
1.85399e-11
-2.21444e-11
2.39042e-11
-2.40967e-11
2.78021e-11
-2.63636e-11
2.96452e-11
-2.8829e-11
2.99777e-11
-3.13941e-11
2.92232e-11
-3.3953e-11
2.7659e-11
-3.64265e-11
2.55159e-11
-3.87622e-11
2.2912e-11
-4.09308e-11
1.99493e-11
-4.29208e-11
1.67344e-11
-4.47349e-11
1.34082e-11
-4.63898e-11
1.01496e-11
-4.7919e-11
7.17887e-12
-4.93747e-11
4.75892e-12
-5.08301e-11
3.20191e-12
-5.23783e-11
2.87816e-12
-5.41256e-11
4.22363e-12
-5.61756e-11
7.73434e-12
-5.85977e-11
1.39302e-11
-6.13831e-11
2.32485e-11
-6.4393e-11
3.58914e-11
-6.73377e-11
5.14926e-11
-6.97938e-11
6.91999e-11
-7.13449e-11
8.68476e-11
-7.16451e-11
1.03606e-10
-7.05639e-11
1.14662e-10
-6.82812e-11
1.2521e-10
1.23381e-10
-6.42295e-11
-2.04849e-11
1.03999e-11
-2.18095e-11
1.98644e-11
-2.35424e-11
2.56371e-11
-2.55509e-11
2.98106e-11
-2.78738e-11
3.19681e-11
-3.04068e-11
3.25108e-11
-3.30567e-11
3.18731e-11
-3.57197e-11
3.0322e-11
-3.83137e-11
2.811e-11
-4.07816e-11
2.53798e-11
-4.30897e-11
2.22573e-11
-4.52235e-11
1.88683e-11
-4.71846e-11
1.53693e-11
-4.89897e-11
1.19547e-11
-5.06719e-11
8.86113e-12
-5.22828e-11
6.36983e-12
-5.38924e-11
4.81155e-12
-5.55868e-11
4.57247e-12
-5.74586e-11
6.09546e-12
-5.9589e-11
9.86475e-12
-6.20158e-11
1.63569e-11
-6.46923e-11
2.59251e-11
-6.74466e-11
3.86457e-11
-6.99757e-11
5.40217e-11
-7.1876e-11
7.11003e-11
-7.27814e-11
8.77529e-11
-7.2401e-11
1.03226e-10
-7.06623e-11
1.12923e-10
-6.77258e-11
1.22274e-10
1.18792e-10
-6.31375e-11
-2.17357e-11
1.17775e-11
-2.31446e-11
2.12732e-11
-2.49434e-11
2.7436e-11
-2.70076e-11
3.18748e-11
-2.93826e-11
3.43432e-11
-3.19759e-11
3.51041e-11
-3.47004e-11
3.45976e-11
-3.74557e-11
3.30773e-11
-4.01583e-11
3.08125e-11
-4.27472e-11
2.79688e-11
-4.51849e-11
2.46951e-11
-4.7454e-11
2.11374e-11
-4.95541e-11
1.74694e-11
-5.1501e-11
1.39016e-11
-5.33269e-11
1.06871e-11
-5.50811e-11
8.12397e-12
-5.68287e-11
6.55919e-12
-5.86466e-11
6.39039e-12
-6.06121e-11
8.06094e-12
-6.27827e-11
1.20354e-11
-6.51655e-11
1.87397e-11
-6.76806e-11
2.84402e-11
-7.01308e-11
4.1096e-11
-7.22094e-11
5.61003e-11
-7.35389e-11
7.24297e-11
-7.38018e-11
8.80159e-11
-7.2757e-11
1.02181e-10
-7.03816e-11
1.10548e-10
-6.68192e-11
1.18712e-10
1.13695e-10
-6.17219e-11
-2.29658e-11
1.32887e-11
-2.44658e-11
2.27732e-11
-2.63334e-11
2.93036e-11
-2.84528e-11
3.39942e-11
-3.0876e-11
3.67663e-11
-3.3522e-11
3.77501e-11
-3.63105e-11
3.7386e-11
-3.91454e-11
3.59122e-11
-4.19432e-11
3.36103e-11
-4.46402e-11
3.06658e-11
-4.71955e-11
2.72503e-11
-4.95884e-11
2.35303e-11
-5.18166e-11
1.96976e-11
-5.38941e-11
1.59791e-11
-5.58509e-11
1.26439e-11
-5.77328e-11
1.00058e-11
-5.95986e-11
8.42495e-12
-6.15141e-11
8.30594e-12
-6.35398e-11
1.00866e-11
-6.57093e-11
1.42049e-11
-6.8001e-11
2.10314e-11
-7.03068e-11
3.07459e-11
-7.2412e-11
4.32012e-11
-7.40136e-11
5.77019e-11
-7.47642e-11
7.31802e-11
-7.43928e-11
8.76445e-11
-7.27027e-11
1.00491e-10
-6.97137e-11
1.07559e-10
-6.55553e-11
1.14553e-10
1.08118e-10
-5.99781e-11
-2.41583e-11
1.49424e-11
-2.57564e-11
2.43713e-11
-2.76958e-11
3.1243e-11
-2.98702e-11
3.61686e-11
-3.23375e-11
3.92336e-11
-3.50285e-11
4.04411e-11
-3.78699e-11
4.02274e-11
-4.07711e-11
3.88134e-11
-4.36495e-11
3.64887e-11
-4.64399e-11
3.34562e-11
-4.90984e-11
2.99088e-11
-5.16015e-11
2.60334e-11
-5.39441e-11
2.20402e-11
-5.61378e-11
1.81728e-11
-5.82096e-11
1.47157e-11
-6.02004e-11
1.19966e-11
-6.21612e-11
1.03858e-11
-6.41457e-11
1.02904e-11
-6.61963e-11
1.21372e-11
-6.83236e-11
1.63323e-11
-7.04797e-11
2.31875e-11
-7.25335e-11
3.27997e-11
-7.42599e-11
4.49276e-11
-7.53658e-11
5.88077e-11
-7.55356e-11
7.335e-11
-7.45422e-11
8.66512e-11
-7.22284e-11
9.81772e-11
-6.86511e-11
1.03982e-10
-6.39284e-11
1.0983e-10
1.02091e-10
-5.79018e-11
-2.52936e-11
1.67471e-11
-2.69973e-11
2.6075e-11
-2.90117e-11
3.32574e-11
-3.12408e-11
3.83977e-11
-3.3748e-11
4.17408e-11
-3.64761e-11
4.31691e-11
-3.93592e-11
4.31105e-11
-4.23126e-11
4.17668e-11
-4.5256e-11
3.94321e-11
-4.81235e-11
3.63237e-11
-5.0869e-11
3.26542e-11
-5.34661e-11
2.86305e-11
-5.59068e-11
2.4481e-11
-5.81997e-11
2.04657e-11
-6.03677e-11
1.68837e-11
-6.24458e-11
1.40747e-11
-6.44759e-11
1.24159e-11
-6.64986e-11
1.2313e-11
-6.85381e-11
1.41767e-11
-7.05829e-11
1.83771e-11
-7.25621e-11
2.51666e-11
-7.43269e-11
3.45645e-11
-7.56476e-11
4.62484e-11
-7.62456e-11
5.94057e-11
-7.58382e-11
7.29426e-11
-7.42386e-11
8.50516e-11
-7.13251e-11
9.52638e-11
-6.71872e-11
9.98436e-11
-6.19335e-11
1.04577e-10
9.56472e-11
-5.54893e-11
-2.63497e-11
1.87112e-11
-2.81664e-11
2.78918e-11
-3.02592e-11
3.53502e-11
-3.2543e-11
4.06815e-11
-3.50861e-11
4.42839e-11
-3.78432e-11
4.59262e-11
-4.07563e-11
4.60237e-11
-4.37474e-11
4.47579e-11
-4.67392e-11
4.24239e-11
-4.96663e-11
3.92508e-11
-5.24807e-11
3.54686e-11
-5.51535e-11
3.13034e-11
-5.76738e-11
2.70012e-11
-6.00463e-11
2.28381e-11
-6.22891e-11
1.91265e-11
-6.44303e-11
1.62159e-11
-6.6502e-11
1.44876e-11
-6.85307e-11
1.43418e-11
-7.05231e-11
1.61691e-11
-7.2447e-11
2.0301e-11
-7.42119e-11
2.69315e-11
-7.56561e-11
3.60087e-11
-7.65507e-11
4.7143e-11
-7.66348e-11
5.94897e-11
-7.56583e-11
7.19661e-11
-7.34714e-11
8.28647e-11
-6.99846e-11
9.1777e-11
-6.53156e-11
9.51747e-11
-5.95658e-11
9.8827e-11
8.88185e-11
-5.27371e-11
-2.73021e-11
2.08424e-11
-2.92393e-11
2.98289e-11
-3.14139e-11
3.75248e-11
-3.37522e-11
4.30198e-11
-3.63272e-11
4.6859e-11
-3.91053e-11
4.87043e-11
-4.20367e-11
4.8955e-11
-4.50505e-11
4.77717e-11
-4.80734e-11
4.54468e-11
-5.10411e-11
4.22186e-11
-5.39049e-11
3.83324e-11
-5.66335e-11
3.4032e-11
-5.92126e-11
2.95803e-11
-6.16429e-11
2.52684e-11
-6.39369e-11
2.14206e-11
-6.61152e-11
1.83942e-11
-6.81992e-11
1.65716e-11
-7.02014e-11
1.6344e-11
-7.21113e-11
1.8079e-11
-7.38782e-11
2.20679e-11
-7.53955e-11
2.84488e-11
-7.64932e-11
3.71064e-11
-7.69473e-11
4.75972e-11
-7.65167e-11
5.9059e-11
-7.49832e-11
7.04327e-11
-7.22308e-11
8.01123e-11
-6.81992e-11
8.77453e-11
-6.30309e-11
9.00064e-11
-5.68211e-11
9.26172e-11
8.16393e-11
-4.9642e-11
-2.81237e-11
2.31476e-11
-3.01883e-11
3.18935e-11
-3.24482e-11
3.97846e-11
-3.48411e-11
4.54127e-11
-3.7444e-11
4.94619e-11
-4.0235e-11
5.14953e-11
-4.31727e-11
5.18927e-11
-4.61939e-11
5.07929e-11
-4.92301e-11
4.84829e-11
-5.22189e-11
4.52074e-11
-5.51113e-11
4.12248e-11
-5.7874e-11
3.67947e-11
-6.04895e-11
3.21958e-11
-6.29539e-11
2.77328e-11
-6.5274e-11
2.37407e-11
-6.74618e-11
2.0582e-11
-6.9528e-11
1.86378e-11
-7.14711e-11
1.82871e-11
-7.32645e-11
1.98724e-11
-7.48412e-11
2.36447e-11
-7.6082e-11
2.96896e-11
-7.68126e-11
3.7837e-11
-7.68173e-11