/*--------------------------------*- C++ -*----------------------------------*\
| =========                 |                                                 |
| \\      /  F ield         | OpenFOAM: The Open Source CFD Toolbox           |
|  \\    /   O peration     | Version:  2.4.0                                 |
|   \\  /    A nd           | Web:      www.OpenFOAM.org                      |
|    \\/     M anipulation  |                                                 |
\*---------------------------------------------------------------------------*/
FoamFile
{
    version     2.0;
    format      ascii;
    class       volVectorField;
    location    "0.01";
    object      U;
}
// * * * * * * * * * * * * * * * * * * * * * * * * * * * * * * * * * * * * * //

dimensions      [0 1 -1 0 0 0 0];

internalField   nonuniform List<vector> 
7200
(
(-5.37613e-05 0.000851065 -4.64109e-25)
(6.35258e-05 -0.000192878 2.9764e-22)
(-0.000176139 0.000225219 -1.14977e-21)
(0.000149453 4.62796e-05 0)
(-0.000227834 0.000244213 -1.31181e-23)
(-2.38477e-05 0.000119527 -1.54649e-21)
(-0.000151251 0.000158146 0)
(-9.87071e-05 0.000112827 0)
(-0.00013258 0.000104842 0)
(-0.000120855 8.13446e-05 -3.82313e-23)
(-0.000125241 6.44014e-05 1.33784e-21)
(-0.000119404 4.67202e-05 1.46921e-21)
(-0.000114544 3.10456e-05 1.51688e-21)
(-0.000106791 1.69681e-05 -2.45678e-23)
(-9.80339e-05 4.77752e-06 -1.15601e-25)
(-8.81105e-05 -5.41825e-06 0)
(-7.73906e-05 -1.35883e-05 2.73865e-23)
(-6.68005e-05 -1.97778e-05 4.42639e-24)
(-5.43439e-05 -2.37318e-05 1.73378e-21)
(-4.86723e-05 -2.73361e-05 -3.1627e-23)
(-2.20573e-05 -2.30935e-05 -5.32994e-23)
(-6.45266e-05 -4.14819e-05 -3.16715e-21)
(9.46307e-05 2.33107e-05 2.76026e-21)
(-0.000317202 -0.000170273 3.40124e-21)
(0.000793626 0.000384512 5.11309e-22)
(-0.00200626 -0.00109285 -3.70523e-21)
(0.00412068 0.0023038 7.63518e-23)
(-0.00563343 -0.00313093 -3.23892e-21)
(0.00409059 0.00115763 1.66806e-20)
(-0.00149295 0.000208756 -2.51117e-21)
(-0.000219807 0.00274808 -8.70797e-25)
(9.25334e-05 0.000239049 -4.28424e-22)
(-0.000422303 0.000617929 1.37931e-21)
(0.000134427 0.000333411 0)
(-0.000442828 0.000669544 0)
(-0.000246909 0.000478964 5.95093e-23)
(-0.000434266 0.000507895 3.60247e-23)
(-0.000389961 0.000405229 -4.03621e-23)
(-0.00044766 0.000358037 0)
(-0.000441177 0.000285174 1.72343e-21)
(-0.000449187 0.000224015 -1.88174e-21)
(-0.000438475 0.000162517 -2.00326e-21)
(-0.000424321 0.000106622 -4.39198e-21)
(-0.000402076 5.57665e-05 -1.10112e-21)
(-0.000375072 1.10626e-05 2.94853e-22)
(-0.000343709 -2.70884e-05 -3.03583e-22)
(-0.000309265 -5.8347e-05 1.23647e-21)
(-0.000273634 -8.28687e-05 -2.52355e-21)
(-0.000235429 -9.97621e-05 9.13193e-23)
(-0.000204539 -0.000113542 2.48971e-21)
(-0.000154438 -0.00010975 -7.35552e-23)
(-0.000171623 -0.000141435 0)
(-6.24784e-06 -4.36661e-05 7.51939e-23)
(-0.000356468 -0.000314619 -5.07612e-21)
(0.000592964 0.000422269 -6.16019e-22)
(-0.00173803 -0.0014684 9.01803e-21)
(0.00419074 0.0031696 1.23486e-22)
(-0.00757362 -0.00608195 -3.45413e-20)
(0.00615457 0.00304303 -2.53449e-20)
(-0.00443327 0.000314818 4.13856e-21)
(-0.000441611 0.00483706 0)
(8.07955e-06 0.0012472 -4.89962e-22)
(-0.000743408 0.00116504 -5.8607e-22)
(7.85813e-05 0.000846501 8.46835e-22)
(-0.000666825 0.00110515 0)
(-0.000491881 0.000943506 2.12074e-21)
(-0.000756386 0.000911966 0)
(-0.000737318 0.000768873 0)
(-0.000822644 0.000663935 -4.916e-23)
(-0.000831321 0.0005369 -3.41182e-21)
(-0.000847236 0.000420034 -2.68797e-23)
(-0.000836634 0.000304955 3.13614e-23)
(-0.0008158 0.000198073 2.20423e-21)
(-0.000780653 9.98426e-05 1.1048e-21)
(-0.000735419 1.21267e-05 2.96357e-22)
(-0.000681303 -6.41064e-05 6.09577e-22)
(-0.000620555 -0.00012804 -1.2406e-21)
(-0.00055593 -0.000179619 0)
(-0.000487467 -0.000217778 -5.01373e-21)
(-0.000424727 -0.00024695 -2.49343e-21)
(-0.000346469 -0.000255051 7.81008e-23)
(-0.000329596 -0.000285881 1.86036e-24)
(-0.000146191 -0.000214263 -1.44135e-22)
(-0.000479405 -0.000407784 2.43987e-21)
(0.000567852 8.93492e-05 0)
(-0.00193265 -0.00112652 -4.85307e-22)
(0.00454719 0.00173095 1.22117e-22)
(-0.0103748 -0.00585563 1.39745e-20)
(0.00916541 0.00373026 -7.24702e-21)
(-0.00844928 0.00024946 0)
(-0.000714196 0.00709658 -1.19002e-24)
(-0.000166502 0.0026891 -5.98761e-24)
(-0.00112844 0.00197382 1.35544e-23)
(-0.000124456 0.00154645 -7.67184e-23)
(-0.000900029 0.00166278 5.45664e-22)
(-0.000785518 0.00149294 -1.06028e-21)
(-0.00111635 0.00139827 -1.14305e-21)
(-0.00114664 0.00120249 4.0844e-23)
(-0.00126388 0.00103146 -1.54471e-21)
(-0.00129708 0.000839501 1.68608e-21)
(-0.00132603 0.000656251 1.92721e-21)
(-0.00132033 0.00047634 -2.01506e-21)
(-0.00129576 0.000307086 3.45137e-23)
(-0.00124941 0.000150075 -3.52258e-23)
(-0.00118616 8.14388e-06 2.10284e-25)
(-0.00110817 -0.000116984 -6.12434e-22)
(-0.00101873 -0.000223819 -3.96753e-23)
(-0.00092147 -0.0003119 3.88733e-23)
(-0.000818324 -0.000379857 2.56466e-21)
(-0.00071782 -0.000431947 2.38826e-21)
(-0.000607143 -0.00045771 -2.47871e-21)
(-0.000543824 -0.000495655 1.50109e-22)
(-0.000358405 -0.000443595 -1.46983e-22)
(-0.000590849 -0.000605754 -4.7188e-21)
(0.000339546 -0.000231362 -1.57365e-21)
(-0.00187033 -0.00118131 -3.42052e-21)
(0.00358827 0.000416273 -5.19175e-24)
(-0.0111161 -0.00478337 -8.2035e-21)
(0.0104675 0.00377644 1.343e-20)
(-0.0130618 8.4507e-05 -3.79452e-23)
(-0.00103748 0.00951015 1.92881e-24)
(-0.000413087 0.00446673 5.44816e-22)
(-0.00157944 0.00307223 7.78674e-23)
(-0.000478465 0.00244392 -8.30272e-22)
(-0.00120727 0.00237935 -5.30573e-22)
(-0.00113543 0.002152 0)
(-0.00152906 0.00198014 1.12e-21)
(-0.00162061 0.00171654 4.40249e-23)
(-0.00177835 0.00146801 -4.53966e-23)
(-0.00184395 0.00119908 -5.54505e-23)
(-0.00189209 0.000937345 1.99327e-21)
(-0.00189613 0.00068023 2.81364e-24)
(-0.0018712 0.000436056 -1.12529e-21)
(-0.00181559 0.000207732 0)
(-0.00173484 -7.69198e-07 -2.98423e-22)
(-0.00163206 -0.000186762 6.15134e-22)
(-0.00151169 -0.000347905 1.25748e-21)
(-0.00137835 -0.000483101 1.27368e-21)
(-0.00123599 -0.00059062 0)
(-0.00109253 -0.000674166 0)
(-0.000942962 -0.000725325 2.49149e-21)
(-0.000829146 -0.000777001 0)
(-0.000631254 -0.000750229 -2.41822e-21)
(-0.000771008 -0.00089654 2.4868e-21)
(3.31588e-05 -0.000628225 1.59751e-21)
(-0.00201121 -0.0014729 0)
(0.00241773 -0.000488782 8.39167e-23)
(-0.0108618 -0.00361762 1.57056e-20)
(0.0100774 0.0033564 -6.18942e-21)
(-0.0182544 -0.000126535 3.7828e-23)
(-0.00141252 0.0120652 -6.30283e-25)
(-0.000719007 0.00651317 -1.55552e-23)
(-0.00209073 0.00445341 -4.81171e-23)
(-0.000974568 0.00354628 8.82003e-22)
(-0.00162845 0.00327416 0)
(-0.00156768 0.00294218 0)
(-0.00201013 0.00267263 -3.72742e-23)
(-0.00216762 0.0023221 -1.35713e-21)
(-0.00237328 0.00198188 3.13323e-21)
(-0.0024786 0.00162203 0)
(-0.00255224 0.00126832 -3.1806e-23)
(-0.00257106 0.000920365 3.30833e-23)
(-0.00254943 0.000587538 1.09583e-21)
(-0.00248685 0.000274188 -1.82672e-23)
(-0.00238941 -1.44416e-05 3.18023e-22)
(-0.00226126 -0.000274505 -2.8909e-22)
(-0.00210799 -0.000502631 -1.32126e-21)
(-0.00193535 -0.000696871 -1.23915e-21)
(-0.00174945 -0.000855025 4.1051e-23)
(-0.00155814 -0.000980053 -2.533e-21)
(-0.00136364 -0.00106553 -7.77708e-23)
(-0.00119558 -0.00113989 2.59159e-21)
(-0.000979497 -0.00114406 4.6154e-21)
(-0.00103607 -0.00129063 1.83292e-24)
(-0.000391737 -0.00110604 6.15668e-23)
(-0.00229488 -0.00188948 -2.88442e-23)
(0.00133029 -0.0010271 2.33461e-23)
(-0.0103646 -0.00277458 -9.28348e-22)
(0.00807878 0.0026182 0)
(-0.0239788 -0.000349012 0)
(-0.00184166 0.0147519 4.7678e-24)
(-0.00107753 0.00878264 -5.95404e-22)
(-0.00265102 0.00609773 -1.78633e-23)
(-0.00159553 0.00485363 6.13347e-23)
(-0.00218432 0.0043531 0)
(-0.00210866 0.00387909 3.25115e-23)
(-0.00257916 0.00348845 -3.69194e-23)
(-0.00279942 0.00303015 1.41241e-21)
(-0.00305748 0.00258146 -1.57869e-21)
(-0.0032086 0.002115 0)
(-0.00331381 0.00165433 -1.92362e-21)
(-0.00335249 0.00120064 2.07088e-21)
(-0.00333812 0.000764251 3.48798e-23)
(-0.00327116 0.000350979 -1.19056e-21)
(-0.00315825 -3.25511e-05 -1.32425e-26)
(-0.00300453 -0.000381158 0)
(-0.00281681 -0.000690269 0)
(-0.00260211 -0.000956885 0)
(-0.00236877 -0.0011782 2.55769e-21)
(-0.00212523 -0.0013563 2.54631e-21)
(-0.00188047 -0.00148661 -2.42211e-21)
(-0.00165601 -0.00159383 2.32229e-23)
(-0.00141742 -0.00163608 -2.58571e-21)
(-0.00140783 -0.00179032 2.55447e-21)
(-0.00092658 -0.00167197 0)
(-0.00266546 -0.00236331 -2.93081e-21)
(0.000335946 -0.00140919 -8.95676e-23)
(-0.0102096 -0.00242757 -5.67285e-22)
(0.00460007 0.00168754 7.35389e-23)
(-0.0301529 -0.000561448 -3.65214e-23)
(-0.00232827 0.0175624 -7.5767e-25)
(-0.00148671 0.0112436 6.16426e-22)
(-0.0032495 0.00798297 -3.05677e-22)
(-0.00231931 0.00636119 -9.62583e-22)
(-0.00287858 0.00561387 -3.09258e-23)
(-0.00277857 0.00497044 0)
(-0.00325607 0.00443675 3.8438e-23)
(-0.00353014 0.00384988 -1.47314e-21)
(-0.00384121 0.00327458 1.54568e-21)
(-0.00404242 0.0026844 5.43021e-23)
(-0.00418459 0.00210049 0)
(-0.00424812 0.00152502 0)
(-0.00424512 0.000969041 3.49987e-23)
(-0.00417676 0.000439817 1.10483e-21)
(-0.00405006 -5.45665e-05 -5.8422e-22)
(-0.00387112 -0.000507452 3.30737e-22)
(-0.003648 -0.000912903 -1.95846e-23)
(-0.0033891 -0.00126669 0)
(-0.00310514 -0.00156525 6.17407e-24)
(-0.00280583 -0.00180968 8.39133e-23)
(-0.00250672 -0.00199701 2.5209e-21)
(-0.00222491 -0.00214863 -2.57207e-21)
(-0.00196157 -0.00223618 0)
(-0.00189875 -0.00240356 -2.51137e-21)
(-0.00156389 -0.00233568 0)
(-0.00311378 -0.00290805 2.98622e-21)
(-0.000743504 -0.00185124 1.8137e-23)
(-0.010793 -0.00260054 -4.82197e-22)
(-0.000202665 0.000669643 6.84796e-23)
(-0.0366831 -0.000750289 -3.53605e-23)
(-0.00287646 0.02049 -6.75894e-24)
(-0.00194834 0.0138742 -1.30424e-21)
(-0.00387925 0.0100887 7.34228e-22)
(-0.00312277 0.00806253 2.41876e-23)
(-0.00370226 0.00705008 0)
(-0.00358773 0.00621744 1.19278e-21)
(-0.00405768 0.00552225 -3.90601e-23)
(-0.0043742 0.00478785 1.44485e-21)
(-0.00473555 0.00406772 -1.66089e-21)
(-0.00498908 0.00333605 5.48017e-23)
(-0.00517267 0.00261171 0)
(-0.00526577 0.00189743 3.31262e-23)
(-0.00527844 0.00120485 1.07267e-21)
(-0.00521203 0.000542611 -1.84347e-23)
(-0.00507379 -7.97008e-05 3.20874e-22)
(-0.00487067 -0.000653827 -2.92121e-22)
(-0.00461198 -0.00117233 -1.96473e-23)
(-0.00430768 -0.00162958 -4.14749e-23)
(-0.00397098 -0.00202112 -2.58822e-21)
(-0.00361357 -0.00234696 -2.7308e-21)
(-0.00325757 -0.00260532 -2.56639e-21)
(-0.00291884 -0.00281454 8.45628e-23)
(-0.00262956 -0.00295636 -2.75277e-21)
(-0.00252293 -0.00314511 7.67357e-23)
(-0.00231505 -0.0031233 -2.32512e-21)
(-0.00371163 -0.00358394 0)
(-0.00214883 -0.00251349 1.3835e-22)
(-0.0123641 -0.00322373 -6.01375e-21)
(-0.00613954 -0.000353615 2.47759e-21)
(-0.0434713 -0.000907568 -3.38991e-23)
(-0.00349067 0.0235287 1.08736e-23)
(-0.00246685 0.0166582 6.89835e-22)
(-0.00453818 0.0123975 -4.41263e-22)
(-0.00398546 0.00995151 -1.2852e-21)
(-0.00463841 0.00865469 0)
(-0.0045362 0.00761708 -1.17568e-21)
(-0.00499501 0.0067457 -1.2329e-21)
(-0.00534423 0.00584764 -4.45665e-23)
(-0.00575136 0.00496563 -1.64318e-21)
(-0.00605769 0.00407483 -1.81379e-21)
(-0.00628614 0.00319242 1.96205e-21)
(-0.00641325 0.00232166 -2.13316e-21)
(-0.00644601 0.00147468 -1.07673e-21)
(-0.00638538 0.000661474 1.18284e-21)
(-0.00623853 -0.000106851 -3.21245e-22)
(-0.00601315 -0.000820338 2.92403e-22)
(-0.00571977 -0.00146992 6.04931e-23)
(-0.00537007 -0.00204845 -8.17251e-23)
(-0.00497996 -0.00255041 2.68493e-21)
(-0.00456381 -0.00297466 2.66027e-21)
(-0.00415048 -0.00332028 5.3382e-21)
(-0.00375717 -0.00360277 8.60558e-23)
(-0.00344317 -0.00381175 2.53598e-21)
(-0.0033051 -0.0040375 0)
(-0.00322778 -0.0040733 2.36024e-21)
(-0.0045919 -0.00446185 0)
(-0.00411743 -0.00347609 1.03609e-21)
(-0.0150402 -0.00418132 5.26029e-23)
(-0.0130013 -0.00132227 -2.49053e-21)
(-0.0504191 -0.00102942 -3.21763e-23)
(-0.00417546 0.026673 -1.90985e-23)
(-0.00304824 0.0195837 1.52307e-23)
(-0.00522882 0.0148949 5.43666e-22)
(-0.00489216 0.0120231 1.30184e-21)
(-0.00566682 0.010422 -3.17086e-23)
(-0.00561544 0.00916469 3.66644e-23)
(-0.00607208 0.00810506 1.24698e-21)
(-0.00644932 0.00703013 4.60399e-23)
(-0.00689807 0.00597113 3.38355e-21)
(-0.00725671 0.00490443 -1.24995e-22)
(-0.00753274 0.00384646 6.73907e-23)
(-0.00769804 0.00280127 2.10924e-21)
(-0.00775551 0.00178159 0)
(-0.00770504 0.000798759 -1.14974e-21)
(-0.00755335 -0.000134524 5.87882e-22)
(-0.00730869 -0.00100653 -3.3315e-22)
(-0.00698283 -0.00180647 6.06006e-23)
(-0.00658931 -0.00252555 1.26683e-21)
(-0.00614704 -0.00315712 -2.69866e-21)
(-0.0056738 -0.00369888 -4.51407e-23)
(-0.00520559 -0.00415051 -2.52242e-21)
(-0.00476349 -0.00452533 -1.69189e-22)
(-0.00443213 -0.00482004 8.10911e-23)
(-0.0042882 -0.00510733 2.59567e-21)
(-0.00438665 -0.00522569 1.71069e-22)
(-0.00591773 -0.00559346 -1.49236e-22)
(-0.00683902 -0.00474422 -1.13968e-21)
(-0.0188279 -0.00534402 -4.77615e-21)
(-0.0205739 -0.00219588 2.06219e-21)
(-0.057432 -0.00111498 -1.8167e-21)
(-0.00493525 0.0299175 1.03825e-23)
(-0.00369913 0.0226408 -1.60369e-23)
(-0.0059573 0.0175688 -5.47461e-22)
(-0.00583387 0.0142735 -1.6658e-23)
(-0.00676786 0.0123487 -1.16785e-21)
(-0.00681115 0.010856 1.19827e-22)
(-0.00728608 0.00959701 1.39868e-21)
(-0.00769393 0.00833428 -4.7794e-23)
(-0.00818258 0.00708532 -3.39876e-21)
(-0.0085933 0.0058274 1.84847e-21)
(-0.00891936 0.004577 -4.02005e-21)
(-0.00912702 0.00333955 3.27194e-23)
(-0.00921416 0.00212864 3.54591e-23)
(-0.00917889 0.000957092 -5.46149e-23)
(-0.00902712 -0.000160754 -2.85254e-22)
(-0.00876747 -0.00121131 1.99056e-23)
(-0.00841295 -0.00218198 -1.97401e-23)
(-0.0079792 -0.00306227 -2.61934e-21)
(-0.00748848 -0.00384433 2.65646e-21)
(-0.0069629 -0.00452478 8.65401e-23)
(-0.00644639 -0.00510399 -8.26042e-23)
(-0.00596709 -0.00559406 2.80714e-21)
(-0.00563695 -0.00599887 -2.91069e-21)
(-0.00553523 -0.00637894 1.81007e-22)
(-0.00590248 -0.00660922 1.50229e-23)
(-0.00784956 -0.00699525 2.78008e-21)
(-0.0104325 -0.00626635 0)
(-0.0236491 -0.00658993 4.95678e-21)
(-0.0286497 -0.00295077 -2.08299e-21)
(-0.0644217 -0.00116544 1.92088e-21)
(-0.00577415 0.0332566 -2.01057e-23)
(-0.00442613 0.025821 1.68728e-23)
(-0.0067321 0.0204085 -3.76445e-23)
(-0.00680775 0.0166993 1.7901e-23)
(-0.00792536 0.0144337 -1.2505e-22)
(-0.00810637 0.0126883 4.38284e-25)
(-0.00862861 0.0112183 -1.36948e-21)
(-0.00907765 0.00975808 0)
(-0.00960861 0.00830807 -8.37819e-23)
(-0.0100726 0.00684522 1.9522e-21)
(-0.0104516 0.00538657 2.02155e-23)
(-0.0107061 0.00393952 -6.67957e-23)
(-0.0108284 0.00251898 7.0244e-23)
(-0.0108142 0.00113943 -1.75868e-23)
(-0.0106683 -0.000183005 -3.21962e-22)
(-0.0103995 -0.0014328 -1.98905e-23)
(-0.0100221 -0.00259546 1.97294e-23)
(-0.00955411 -0.00365879 1.31233e-21)
(-0.00902173 -0.00461375 -2.66827e-21)
(-0.00845257 -0.00545608 -2.60106e-21)
(-0.0079 -0.00618704 5.11001e-24)
(-0.00740376 -0.00681866 -5.46768e-21)
(-0.00710925 -0.00736194 5.59944e-24)
(-0.00712512 -0.00786723 -5.59148e-21)
(-0.00789499 -0.00823163 -5.47402e-21)
(-0.0105181 -0.00864487 -4.90528e-23)
(-0.0149397 -0.00795631 -6.34955e-23)
(-0.0293671 -0.00781657 0)
(-0.0370362 -0.00357695 4.27357e-23)
(-0.0713086 -0.00118332 -3.16387e-21)
(-0.00669595 0.0366846 1.85457e-23)
(-0.00523531 0.0291164 4.52982e-24)
(-0.00756277 0.023404 0)
(-0.00781613 0.0192971 1.58157e-21)
(-0.00912805 0.0166775 1.27999e-21)
(-0.00948428 0.0146611 1.50452e-21)
(-0.0100876 0.012967 5.03158e-23)
(-0.0105956 0.0112995 0)
(-0.0111763 0.00963863 1.71143e-21)
(-0.0116974 0.00795869 -1.84695e-21)
(-0.0121333 0.00627722 1.99968e-21)
(-0.0124399 0.00460403 3.32886e-23)
(-0.0126036 0.00295585 3.56761e-23)
(-0.0126174 0.00134912 -1.20911e-21)
(-0.0124846 -0.00019807 6.07191e-22)
(-0.0122143 -0.00166815 0)
(-0.011822 -0.00304469 -1.27562e-21)
(-0.0113287 -0.00431378 -4.17058e-23)
(-0.0107652 -0.00546522 2.68645e-21)
(-0.0101662 -0.00649414 5.47028e-21)
(-0.00959707 -0.00740293 -1.71189e-22)
(-0.00911527 -0.00820424 2.83893e-21)
(-0.0089093 -0.00891474 1.67943e-23)
(-0.00914401 -0.00957186 2.78388e-21)
(-0.0104744 -0.0100751 5.55609e-21)
(-0.0140066 -0.0104867 -1.67581e-22)
(-0.0203306 -0.00971394 0)
(-0.0358101 -0.0089464 0)
(-0.0455615 -0.00407492 0)
(-0.0780222 -0.00117181 4.6402e-22)
(-0.007704 0.0401956 0)
(-0.00613199 0.0325195 1.87019e-23)
(-0.00845887 0.0265456 -2.54092e-23)
(-0.00886516 0.0220627 -1.66252e-21)
(-0.01037 0.0190811 0)
(-0.0109303 0.0167755 6.89947e-23)
(-0.0116491 0.0148425 5.00557e-23)
(-0.0122394 0.0129573 -3.57569e-21)
(-0.0128826 0.0110762 -1.85509e-21)
(-0.0134677 0.00916829 0)
(-0.0139665 0.00725067 -2.07421e-21)
(-0.0143314 0.0053358 0)
(-0.0145438 0.00344265 1.13309e-21)
(-0.0145938 0.00158998 5.7123e-22)
(-0.0144831 -0.000201972 1.7272e-23)
(-0.0142207 -0.00191344 1.97766e-23)
(-0.0138241 -0.003526 1.89483e-21)
(-0.0133176 -0.00502399 -4.14966e-23)
(-0.0127379 -0.00639612 -5.24608e-21)
(-0.0121287 -0.00763707 -2.60923e-21)
(-0.0115708 -0.00875031 5.15892e-24)
(-0.0111473 -0.00974879 -8.32521e-23)
(-0.0111008 -0.010651 5.57001e-21)
(-0.0116743 -0.011474 0)
(-0.0137255 -0.0120968 9.02695e-23)
(-0.0183427 -0.0124428 -5.31535e-21)
(-0.0265167 -0.0114416 4.50029e-23)
(-0.0427919 -0.00992758 -5.47051e-23)
(-0.0540771 -0.00445254 4.64779e-23)
(-0.0845017 -0.00113432 3.0718e-21)
(-0.00880124 0.0437836 -3.64015e-24)
(-0.00712067 0.0360231 2.49441e-23)
(-0.00942922 0.0298239 -2.64929e-23)
(-0.00996335 0.024991 0)
(-0.0116502 0.0216454 1.51992e-21)
(-0.0124334 0.0190342 1.19165e-22)
(-0.0132995 0.016846 -5.60999e-23)
(-0.0139985 0.0147313 5.38852e-21)
(-0.0147212 0.0126206 1.86982e-21)
(-0.015381 0.0104745 -2.07423e-21)
(-0.0159507 0.00830859 2.1834e-21)
(-0.0163819 0.0061376 -6.8463e-23)
(-0.0166517 0.00398305 -1.06621e-21)
(-0.0167474 0.00186634 5.52517e-22)
(-0.0166692 -0.000189877 -3.03446e-22)
(-0.0164265 -0.0021635 0)
(-0.0160389 -0.00403399 -6.36685e-22)
(-0.015535 -0.00578391 -4.11669e-23)
(-0.0149584 -0.00740081 7.76396e-23)
(-0.0143651 -0.0088788 0)
(-0.0138554 -0.0102218 -2.67308e-21)
(-0.0135461 -0.0114412 2.77721e-21)
(-0.0137443 -0.0125509 -2.87503e-21)
(-0.0147837 -0.0135365 0)
(-0.0176967 -0.0142343 0)
(-0.0234992 -0.0144248 2.48813e-21)
(-0.0333672 -0.0130556 5.85951e-23)
(-0.0501273 -0.0107317 -2.04375e-21)
(-0.0624588 -0.00472215 2.79623e-23)
(-0.0906948 -0.00107404 -1.81441e-23)
(-0.00999019 0.0474418 0)
(-0.00820501 0.0396196 -9.12578e-22)
(-0.0104814 0.0332293 0)
(-0.0111202 0.0280753 5.02145e-23)
(-0.0129715 0.0243701 -1.60684e-21)
(-0.0139865 0.0214399 -1.76064e-21)
(-0.0150266 0.0189801 3.64899e-21)
(-0.0158614 0.0166228 -1.90872e-21)
(-0.016684 0.0142723 1.22609e-22)
(-0.0174323 0.0118783 1.96067e-21)
(-0.0180835 0.00945279 -3.3344e-23)
(-0.0185906 0.00701234 3.44027e-23)
(-0.0189279 0.00458103 1.10698e-21)
(-0.0190803 0.00218313 3.65011e-23)
(-0.019047 -0.000156022 0)
(-0.018838 -0.00241181 3.06609e-22)
(-0.0184755 -0.00456141 6.2388e-22)
(-0.0179935 -0.00658545 1.26642e-21)
(-0.0174446 -0.00847009 4.7651e-23)
(-0.0168996 -0.0102083 2.67986e-21)
(-0.0164833 -0.011803 2.60928e-21)
(-0.0163541 -0.0132602 -5.25378e-21)
(-0.0168899 -0.0145807 2.56899e-21)
(-0.0185164 -0.015706 -2.54381e-21)
(-0.0223951 -0.0164127 2.47803e-21)
(-0.0294009 -0.0163457 0)
(-0.0407259 -0.0144922 2.93241e-23)
(-0.0576434 -0.0113494 3.505e-21)
(-0.0706049 -0.00489816 1.3192e-21)
(-0.096557 -0.000993814 1.53653e-23)
(-0.0112729 0.0511632 4.45598e-24)
(-0.00938795 0.0433016 2.88058e-21)
(-0.0116215 0.0367522 9.80894e-22)
(-0.0123449 0.031308 -2.89103e-23)
(-0.0143395 0.0272534 6.1354e-23)
(-0.0155865 0.0239951 5.63837e-23)
(-0.0168205 0.021248 -5.73088e-21)
(-0.0178167 0.0186339 -1.86614e-21)
(-0.0187614 0.0160327 -6.40973e-23)
(-0.0196146 0.013381 -2.10895e-21)
(-0.0203602 0.0106854 -2.14059e-21)
(-0.0209549 0.00796321 -6.98111e-23)
(-0.0213713 0.00524096 -1.07546e-21)
(-0.0215931 0.00254591 -3.65676e-23)
(-0.0216187 -9.36886e-05 2.99042e-22)
(-0.0214595 -0.00265044 -3.07574e-22)
(-0.0211411 -0.00509901 -6.25972e-22)
(-0.0207039 -0.00741778 -1.2712e-21)
(-0.0202118 -0.00959094 1.82677e-23)
(-0.0197533 -0.0116092 -2.56967e-21)
(-0.0194825 -0.0134718 2.6416e-21)
(-0.0196053 -0.0151744 2.48806e-21)
(-0.0205716 -0.0166947 -2.51405e-21)
(-0.0228875 -0.0179185 4.88957e-21)
(-0.0277866 -0.0185533 -2.51473e-21)
(-0.0359355 -0.0181289 5.28394e-23)
(-0.0484267 -0.0157096 -2.44146e-23)
(-0.0651863 -0.0117859 -1.4831e-21)
(-0.0784342 -0.00499515 -1.37959e-21)
(-0.102051 -0.000895967 -1.24782e-23)
(-0.0126511 0.0549404 0)
(-0.0106718 0.0470613 -9.6493e-22)
(-0.0128541 0.0403828 -1.09066e-21)
(-0.013646 0.03468 -5.52302e-23)
(-0.0157614 0.0302914 8.50291e-24)
(-0.0172333 0.0267008 6.2332e-23)
(-0.0186741 0.0236526 1.94126e-21)
(-0.0198538 0.0207675 2.008e-21)
(-0.0209429 0.0179039 -6.44517e-23)
(-0.0219194 0.0149846 2.19015e-21)
(-0.0227744 0.0120089 2.15158e-21)
(-0.0234699 0.00899371 1.13091e-21)
(-0.0239786 0.00596757 -1.11488e-25)
(-0.0242839 0.00296081 3.66235e-23)
(-0.0243843 4.78062e-06 -5.97141e-22)
(-0.0242931 -0.00287008 0)
(-0.0240403 -0.00563555 0)
(-0.0236742 -0.00826724 -3.92927e-23)
(-0.0232718 -0.0107464 3.75897e-21)
(-0.0229428 -0.0130598 1.18943e-22)
(-0.0228739 -0.0151992 -2.63347e-22)
(-0.0233213 -0.0171438 7.68605e-23)
(-0.0248021 -0.0188383 -7.79946e-23)
(-0.0278807 -0.0201048 -2.42207e-21)
(-0.0338007 -0.0205809 -1.96479e-21)
(-0.042966 -0.0197135 4.23059e-23)
(-0.0563062 -0.0166872 -2.39724e-23)
(-0.0726244 -0.0120558 2.09193e-22)
(-0.0858827 -0.00502658 1.37474e-23)
(-0.107143 -0.000782347 -9.48236e-24)
(-0.0141257 0.058765 5.53461e-23)
(-0.0120583 0.0508903 -2.107e-21)
(-0.0141826 0.0441113 0)
(-0.0150305 0.0381814 0)
(-0.0172445 0.0334784 0)
(-0.0189294 0.0295566 2.10955e-21)
(-0.0205828 0.0261965 0)
(-0.0219638 0.0230268 2.15629e-21)
(-0.0232182 0.0198887 0)
(-0.024337 0.0166916 -2.21876e-21)
(-0.0253178 0.0134261 -3.47911e-23)
(-0.0261288 0.0101076 -1.10001e-21)
(-0.0267445 0.006766 1.19408e-21)
(-0.0271488 0.00343454 -6.21684e-22)
(-0.0273413 0.000147912 2.98093e-22)
(-0.0273381 -0.00306009 2.96582e-22)
(-0.0271744 -0.00615787 5.95435e-22)
(-0.0269083 -0.00911747 0)
(-0.0266316 -0.0119159 -1.23507e-21)
(-0.0264775 -0.0145334 0)
(-0.0266678 -0.0169501 -2.56186e-21)
(-0.0275082 -0.0191219 2.37042e-21)
(-0.0295708 -0.0209524 0)
(-0.0334496 -0.0221963 1.96332e-21)
(-0.040338 -0.0224306 2.06181e-21)
(-0.0503428 -0.0210573 0)
(-0.0642119 -0.0174215 4.17182e-24)
(-0.0798485 -0.0121787 -2.0237e-22)
(-0.0928997 -0.00500398 -1.1399e-21)
(-0.111807 -0.000654387 -6.37707e-24)
(-0.0156972 0.0626281 -5.28372e-23)
(-0.0135486 0.0547799 3.31289e-21)
(-0.0156088 0.0479276 0)
(-0.0165035 0.0418016 2.07697e-21)
(-0.018796 0.0368068 6.96193e-23)
(-0.0206783 0.0325597 6.6133e-23)
(-0.0225443 0.0288807 -2.14385e-21)
(-0.0241391 0.025414 -2.18053e-21)
(-0.0255775 0.0219897 -7.14515e-23)
(-0.0268572 0.0185046 2.30251e-21)
(-0.0279809 0.0149401 -1.07508e-22)
(-0.0289232 0.0113089 3.63238e-23)
(-0.0296613 0.00764162 -1.16226e-21)
(-0.0301812 0.00397426 5.86976e-22)
(-0.0304843 0.000344961 2.92168e-22)
(-0.0305903 -0.00320871 -2.97516e-22)
(-0.0305412 -0.00665114 -5.23142e-23)
(-0.0304056 -0.00994974 1.19497e-21)
(-0.030292 -0.0130755 1.14924e-21)
(-0.0303588 -0.0159993 2.2674e-21)
(-0.0308627 -0.0186848 -7.24476e-23)
(-0.0321542 -0.0210586 -2.2457e-21)
(-0.0348436 -0.0229771 1.94139e-21)
(-0.0395215 -0.0241304 -3.61824e-21)
(-0.0472793 -0.0240508 0)
(-0.0579148 -0.0221365 -1.80701e-23)
(-0.0720084 -0.0179224 1.97673e-23)
(-0.0867701 -0.0121759 -3.27453e-23)
(-0.0994455 -0.00493666 2.26934e-21)
(-0.116016 -0.000513219 0)
(-0.0173653 0.0665198 0)
(-0.0151433 0.0587205 -4.6613e-21)
(-0.0171337 0.0518213 3.52766e-23)
(-0.0180688 0.0455292 -2.18645e-21)
(-0.0204214 0.0402672 -6.48224e-23)
(-0.0224842 0.0357054 -2.16661e-21)
(-0.0245577 0.0317044 2.3052e-21)
(-0.0263736 0.0279309 -2.40846e-21)
(-0.0280112 0.0242093 2.33641e-21)
(-0.0294692 0.0204263 -7.12627e-23)
(-0.0307526 0.0165541 3.79204e-23)
(-0.0318425 0.0126017 1.20681e-21)
(-0.0327193 0.00859995 1.13145e-21)
(-0.033372 0.00458739 3.67159e-23)
(-0.0338048 0.000605714 -2.93088e-22)
(-0.0340422 -0.00330329 0)
(-0.0341337 -0.00709919 -5.84182e-22)
(-0.0341597 -0.0107435 -2.28107e-21)
(-0.0342465 -0.014199 -2.03451e-23)
(-0.034578 -0.0174241 -2.24421e-21)
(-0.0354435 -0.0203614 -6.71021e-23)
(-0.0372298 -0.0229032 6.32766e-23)
(-0.0405649 -0.0248565 -2.69577e-22)
(-0.046003 -0.0258543 1.70483e-21)
(-0.0544943 -0.0254058 -4.16212e-23)
(-0.0655369 -0.0229435 5.02462e-24)
(-0.0795794 -0.0182085 -1.96447e-22)
(-0.0933186 -0.0120682 4.17861e-23)
(-0.105487 -0.00483176 -2.17002e-21)
(-0.119748 -0.0003598 0)
(-0.0191286 0.0704293 0)
(-0.0168423 0.0627017 4.87172e-21)
(-0.0187571 0.0557812 0)
(-0.0197282 0.0493521 0)
(-0.0221252 0.043849 -6.82073e-23)
(-0.0243509 0.0389866 7.55371e-23)
(-0.0266229 0.0346647 7.22104e-23)
(-0.0286624 0.0305775 2.2794e-21)
(-0.0305104 0.0265489 -2.42739e-21)
(-0.0321619 0.0224587 2.48039e-21)
(-0.0336212 0.0182707 -2.35122e-21)
(-0.0348745 0.0139898 -2.83253e-23)
(-0.0359065 0.00964644 3.67599e-23)
(-0.0367093 0.00528143 -5.98008e-22)
(-0.0372913 0.000940226 -3.03656e-22)
(-0.0376823 -0.00333064 -1.76853e-23)
(-0.0379403 -0.00748498 -1.73063e-23)
(-0.0381584 -0.0114769 8.39113e-23)
(-0.0384809 -0.0152589 -1.10331e-21)
(-0.0391161 -0.0187734 6.45823e-23)
(-0.0403813 -0.0219381 -6.24213e-23)
(-0.0426883 -0.0246077 -5.55579e-23)
(-0.0466604 -0.0265414 -2.38794e-22)
(-0.0527865 -0.0273274 -1.05508e-21)
(-0.0618499 -0.0264753 0)
(-0.073076 -0.0234843 0)
(-0.0868277 -0.0183033 1.84141e-22)
(-0.0994378 -0.0118739 1.91624e-21)
(-0.110998 -0.00469451 1.06449e-21)
(-0.122981 -0.000195032 3.59068e-24)
(-0.0209846 0.0743447 -2.2129e-22)
(-0.0186446 0.0667121 -2.53494e-21)
(-0.0204779 0.0597955 0)
(-0.0214819 0.0532576 0)
(-0.0239098 0.0475399 0)
(-0.0262812 0.0423944 7.48237e-23)
(-0.02874 0.0377567 -1.56379e-22)
(-0.0310011 0.0333518 4.81217e-24)
(-0.0330669 0.0290086 2.50626e-21)
(-0.034924 0.0246033 -2.34091e-21)
(-0.0365736 0.0200924 2.4001e-21)
(-0.0380056 0.0154768 -1.22604e-21)
(-0.0392084 0.0107862 -1.13955e-21)
(-0.0401785 0.00606368 4.57131e-24)
(-0.0409286 0.00135851 4.82286e-24)
(-0.0414948 -0.00327744 2.74028e-22)
(-0.0419442 -0.00779118 0)
(-0.0423829 -0.0121279 1.07714e-21)
(-0.0429725 -0.0162273 0)
(-0.0439433 -0.020013 0)
(-0.045634 -0.0233748 0)
(-0.0484679 -0.0261291 -4.70222e-23)
(-0.053042 -0.0279919 -2.68767e-22)
(-0.0597565 -0.0285221 1.76855e-21)
(-0.0692163 -0.0272531 2.65936e-22)
(-0.080414 -0.0237744 -7.17213e-22)
(-0.0936739 -0.0182318 -9.59564e-22)
(-0.105082 -0.0116084 -1.9118e-21)
(-0.115953 -0.00452864 9.45192e-22)
(-0.125697 -1.98608e-05 4.21546e-22)
(-0.0229294 0.0782528 2.24405e-22)
(-0.0205481 0.0707391 0)
(-0.0222938 0.0638516 1.92136e-21)
(-0.0233285 0.0572323 0)
(-0.0257758 0.0513266 0)
(-0.0282763 0.0459177 2.64181e-21)
(-0.0309084 0.0409731 0)
(-0.0333854 0.0362501 0)
(-0.0356721 0.031587 6.91181e-23)
(-0.0377438 0.0268602 0)
(-0.039596 0.0220205 2.52635e-21)
(-0.0412203 0.0170654 -7.57238e-23)
(-0.0426088 0.0120239 3.77145e-23)
(-0.043762 0.00694095 5.78608e-22)
(-0.044698 0.00187018 5.1759e-24)
(-0.0454597 -0.00313066 -8.10813e-24)
(-0.0461232 -0.00800073 0)
(-0.0468075 -0.0126746 0)
(-0.0476901 -0.0170772 9.05427e-22)
(-0.0490195 -0.0211109 0)
(-0.0511474 -0.0246358 0)
(-0.0544946 -0.0274316 -1.19703e-21)
(-0.059612 -0.0291787 -1.1719e-21)
(-0.0667953 -0.0294237 -4.01508e-22)
(-0.0764722 -0.0277445 -2.69738e-22)
(-0.0874491 -0.0238354 7.17035e-22)
(-0.100054 -0.018018 9.99083e-22)
(-0.110215 -0.0112841 1.00984e-23)
(-0.120331 -0.00433686 -1.04418e-21)
(-0.127877 0.00016466 -4.44075e-22)
(-0.0249575 0.0821393 0)
(-0.0225493 0.0747687 0)
(-0.0242014 0.0679356 -1.97593e-21)
(-0.0252653 0.0612615 0)
(-0.0277218 0.0551945 2.66891e-21)
(-0.0303358 0.0495437 -2.59722e-21)
(-0.0331267 0.0443042 -2.76939e-21)
(-0.0358108 0.0392661 -8.7251e-23)
(-0.0383175 0.0342808 -2.69018e-21)
(-0.0406094 0.0292279 -2.61216e-21)
(-0.0426734 0.0240552 -2.45872e-21)
(-0.0445017 0.0187575 -1.15448e-21)
(-0.0460887 0.0133631 -3.80411e-23)
(-0.0474396 0.00791927 -5.53068e-22)
(-0.0485776 0.00248408 2.60562e-22)
(-0.0495525 -0.00287809 -5.4268e-22)
(-0.0504498 -0.00809749 5.03719e-22)
(-0.0514002 -0.0130966 -9.35826e-22)
(-0.0525949 -0.0177837 -5.26589e-23)
(-0.0542952 -0.0220383 0)
(-0.0568573 -0.0256908 -3.83461e-23)
(-0.0606852 -0.0284874 1.27099e-21)
(-0.0662678 -0.0300831 -5.43762e-22)
(-0.073788 -0.030029 -3.46898e-22)
(-0.0835074 -0.0279636 5.60707e-22)
(-0.0940947 -0.0236918 1.64821e-21)
(-0.105915 -0.017684 -4.29134e-23)
(-0.114804 -0.0109106 3.29685e-21)
(-0.124112 -0.00412127 9.6739e-22)
(-0.129503 0.000357326 0)
(-0.0270612 0.0859885 -1.23903e-23)
(-0.0246432 0.0787856 -1.50126e-21)
(-0.0261957 0.0720322 -2.30973e-21)
(-0.0272876 0.0653299 -2.85312e-21)
(-0.0297444 0.059128 -5.54483e-21)
(-0.0324572 0.0532579 2.9927e-21)
(-0.0353917 0.0477382 2.70221e-21)
(-0.0382714 0.0423915 -8.47629e-23)
(-0.0409939 0.0370844 1.718e-22)
(-0.0435078 0.0317033 5.24244e-21)
(-0.0457899 0.0261953 -2.56155e-21)
(-0.047831 0.0205535 1.19649e-21)
(-0.0496273 0.0148064 0)
(-0.0511879 0.00900351 5.55169e-22)
(-0.0525414 0.00320791 1.74146e-23)
(-0.0537445 -0.00250878 2.46006e-23)
(-0.0548912 -0.00806688 -5.04731e-22)
(-0.0561225 -0.0133755 8.84432e-22)
(-0.0576403 -0.0183249 -1.55306e-21)
(-0.059713 -0.022771 1.30122e-21)
(-0.0626915 -0.0265158 9.73509e-22)
(-0.0669507 -0.0292776 -1.09241e-23)
(-0.0729058 -0.0306968 5.18113e-22)
(-0.0806256 -0.0303443 -4.38797e-22)
(-0.0902239 -0.0279306 -6.13027e-22)
(-0.100278 -0.0233691 -1.64853e-21)
(-0.111214 -0.0172491 2.06059e-21)
(-0.118821 -0.0104953 -7.11498e-21)
(-0.127275 -0.00388371 -1.98405e-21)
(-0.130558 0.000556777 0)
(-0.029231 0.0897835 -1.39901e-23)
(-0.0268225 0.0827731 -1.56193e-23)
(-0.02827 0.0761249 2.37399e-21)
(-0.0293891 0.0694206 -1.034e-22)
(-0.031838 0.0631099 -1.24547e-22)
(-0.0346358 0.0570441 1.75796e-23)
(-0.0376984 0.0512615 7.0673e-24)
(-0.0407604 0.0456154 -2.78619e-21)
(-0.0436911 0.03999 -1.78073e-22)
(-0.0464251 0.0342812 -5.40157e-21)