/*--------------------------------*- C++ -*----------------------------------*\
| =========                 |                                                 |
| \\      /  F ield         | OpenFOAM: The Open Source CFD Toolbox           |
|  \\    /   O peration     | Version:  2.4.0                                 |
|   \\  /    A nd           | Web:      www.OpenFOAM.org                      |
|    \\/     M anipulation  |                                                 |
\*---------------------------------------------------------------------------*/
FoamFile
{
    version     2.0;
    format      ascii;
    class       volScalarField;
    location    "0.04";
    object      p;
}
// * * * * * * * * * * * * * * * * * * * * * * * * * * * * * * * * * * * * * //

dimensions      [0 2 -2 0 0 0 0];

internalField   nonuniform List<scalar> 
7200
(
1.93191e-06
-0.0842615
-0.0203433
0.322177
0.745886
1.10791
1.41439
1.68581
1.90263
2.01697
1.98354
1.77913
1.40993
0.906311
0.316593
-0.302025
-0.888834
-1.38729
-1.75022
-1.94853
-1.9771
-1.85968
-1.64149
-1.36981
-1.06348
-0.701464
-0.277575
0.0650386
0.128926
0.0446624
-0.0156664
-0.0938791
0.0498439
0.44415
0.847543
1.16477
1.42989
1.66086
1.83546
1.91156
1.8533
1.64464
1.29379
0.82808
0.289236
-0.274084
-0.810293
-1.27128
-1.61631
-1.81914
-1.87258
-1.79319
-1.61691
-1.38544
-1.12035
-0.803145
-0.399589
-0.00514172
0.138566
0.0603291
-0.0355556
-0.08793
0.14104
0.563381
0.929707
1.20141
1.42817
1.62127
1.75759
1.80109
1.72383
1.51509
1.18401
0.754929
0.263774
-0.248098
-0.736852
-1.1616
-1.48724
-1.69043
-1.76292
-1.716
-1.57774
-1.38387
-1.15701
-0.885328
-0.518861
-0.0963414
0.132642
0.0802167
-0.0582838
-0.0620846
0.247572
0.673341
0.993425
1.22283
1.41521
1.57464
1.67856
1.69624
1.60568
1.3997
1.0877
0.691298
0.241706
-0.225602
-0.672984
-1.06537
-1.37227
-1.57294
-1.65881
-1.63762
-1.53154
-1.37112
-1.17849
-0.949067
-0.628862
-0.202892
0.106814
0.102949
-0.0816357
-0.0126963
0.366512
0.772835
1.04156
1.23198
1.3928
1.52179
1.59783
1.59466
1.49484
1.29364
1.00029
0.633981
0.22189
-0.205419
-0.615463
-0.978032
-1.26657
-1.46268
-1.5579
-1.55749
-1.47912
-1.34894
-1.18772
-0.99723
-0.728397
-0.321864
0.0574326
0.126312
-0.101841
0.0626439
0.49216
0.858527
1.07485
1.23009
1.36189
1.46351
1.51565
1.49572
1.38982
1.19491
0.919845
0.581571
0.203822
-0.187028
-0.562871
-0.89764
-1.16816
-1.35819
-1.45958
-1.4759
-1.42129
-1.3183
-1.18594
-1.03055
-0.814132
-0.447554
-0.0179132
0.146532
-0.113731
0.164281
0.617263
0.9272
1.09378
1.21795
1.32337
1.40086
1.43293
1.39991
1.2906
1.10313
0.845826
0.533643
0.187345
-0.170262
-0.514778
-0.823667
-1.07666
-1.25944
-1.36434
-1.39373
-1.35908
-1.28006
-1.17393
-1.04954
-0.882849
-0.572708
-0.119569
0.158432
-0.110988
0.289974
0.734166
0.977059
1.09945
1.1965
1.27825
1.33493
1.35053
1.30763
1.19715
1.01795
0.777779
0.489831
0.172323
-0.154978
-0.470812
-0.755653
-0.991724
-1.16642
-1.27259
-1.31186
-1.29359
-1.23523
-1.15264
-1.05527
-0.932756
-0.689666
-0.245291
0.155696
-0.0864946
0.434737
0.835598
1.00781
1.0933
1.16673
1.22759
1.26677
1.26915
1.21916
1.10931
0.938929
0.715204
0.449752
0.158615
-0.14103
-0.43059
-0.693102
-0.912922
-1.07896
-1.1846
-1.23098
-1.22585
-1.18488
-1.12305
-1.04921
-0.963559
-0.791158
-0.390093
0.131203
-0.0327865
0.59095
0.915382
1.02048
1.07685
1.1296
1.17245
1.19728
1.18938
1.13465
1.02686
0.86565
0.657633
0.413053
0.146094
-0.128287
-0.393756
-0.635545
-0.839832
-0.996862
-1.10053
-1.15166
-1.15678
-1.13005
-1.08611
-1.03286
-0.976288
-0.871006
-0.546355
0.0774885
0.0573805
0.748739
0.969068
1.01716
1.05151
1.08606
1.11388
1.12732
1.11168
1.05419
0.949602
0.797713
0.604644
0.379424
0.134646
-0.116632
-0.359996
-0.582561
-0.772061
-0.919909
-1.02047
-1.0744
-1.08721
-1.07179
-1.04278
-1.00764
-0.973035
-0.924761
-0.704201
-0.0126914
0.190421
0.896611
0.994414
1.00064
1.0185
1.03708
1.05289
1.05759
1.03643
0.977813
0.877288
0.734744
0.555853
0.348583
0.12417
-0.105961
-0.32903
-0.533768
-0.709237
-0.847875
-0.944469
-0.999554
-1.01785
-1.01111
-0.994008
-0.974751
-0.956595
-0.950181
-0.85214
-0.145752
0.371317
1.02231
0.991648
0.974005
0.978773
0.983642
0.990429
0.988717
0.963933
0.905511
0.809687
0.676393
0.510913
0.320282
0.114578
-0.0961811
-0.300605
-0.488819
-0.651014
-0.780529
-0.87251
-0.92743
-0.949342
-0.948946
-0.940792
-0.935165
-0.930049
-0.947493
-0.977911
-0.326676
0.60309
1.11377
0.963463
0.940201
0.933089
0.926795
0.927361
0.921228
0.894395
0.837233
0.746561
0.622335
0.469507
0.294293
0.105788
-0.0872113
-0.274496
-0.447398
-0.597068
-0.717636
-0.80455
-0.858246
-0.882194
-0.886167
-0.884163
-0.889626
-0.896338
-0.919392
-1.06946
-0.558488
0.886396
1.16015
0.914764
0.901656
0.882051
0.867608
0.864443
0.855542
0.827974
0.772899
0.687675
0.572263
0.431346
0.270416
0.0977292
-0.0789778
-0.2505
-0.409217
-0.547096
-0.658963
-0.740513
-0.79216
-0.816833
-0.82353
-0.825192
-0.838738
-0.857891
-0.870781
-1.11594
-0.841844
1.2193
1.15275
0.852175
0.860014
0.82624
0.807163
0.802316
0.792001
0.764768
0.712405
0.632796
0.525896
0.39617
0.248468
0.0903358
-0.0714148
-0.228433
-0.374015
-0.500816
-0.604282
-0.680298
-0.729271
-0.753603
-0.761674
-0.764959
-0.783078
-0.816352
-0.80828
-1.10865
-1.17481
1.59725
1.08579
0.783366
0.815994
0.766332
0.746509
0.741495
0.73087
0.704828
0.65563
0.581698
0.482968
0.363738
0.228283
0.0835503
-0.0644633
-0.208131
-0.341553
-0.457967
-0.553369
-0.623787
-0.669635
-0.692772
-0.701117
-0.704514
-0.723321
-0.772435
-0.73956
-1.0418
-1.55284
2.01327
0.95692
0.716295
0.769385
0.70321
0.686607
0.682378
0.672357
0.648164
0.602437
0.534164
0.443235
0.333834
0.209714
0.0773203
-0.0580704
-0.189445
-0.311615
-0.418304
-0.506008
-0.570846
-0.613263
-0.63455
-0.642257
-0.644816
-0.66035
-0.72593
-0.672574
-0.913045
-1.96895
2.4583
0.767413
0.658424
0.719201
0.63803
0.62827
0.625262
0.616613
0.594753
0.552685
0.489983
0.40647
0.306259
0.192626
0.0715988
-0.0521884
-0.17224
-0.284002
-0.381601
-0.461989
-0.521335
-0.560134
-0.57909
-0.585394
-0.586682
-0.595319
-0.675848
-0.614783
-0.723656
-2.41409
2.92179
0.522093
0.616029
0.663926
0.572239
0.572111
0.570365
0.563747
0.544541
0.506221
0.448953
0.37246
0.280831
0.176897
0.0663433
-0.0467744
-0.156393
-0.258533
-0.347648
-0.421114
-0.475105
-0.510199
-0.526504
-0.530747
-0.530724
-0.529677
-0.620675
-0.572462
-0.47845
-2.87768
3.39227
0.228899
0.593653
0.601852
0.507532
0.518505
0.517851
0.513821
0.497454
0.462895
0.410884
0.34101
0.257384
0.162416
0.0615153
-0.0417896
-0.141796
-0.235042
-0.316248
-0.383192
-0.432005
-0.463384
-0.476856
-0.478484
-0.47732
-0.46512
-0.558703
-0.550153
-0.185362
-3.34828
3.85808
-0.101769
0.593776
0.531423
0.445751
0.467573
0.467862
0.466859
0.453399
0.422553
0.375591
0.311938
0.235767
0.149084
0.0570801
-0.0371989
-0.128346
-0.213378
-0.28722
-0.34804
-0.391884
-0.419598
-0.430173
-0.42875
-0.426594
-0.403491
-0.488376
-0.550336
0.145209
-3.81421
4.30803
-0.457878
0.616717
0.451557
0.388747
0.4192
0.420537
0.422842
0.412271
0.38504
0.342901
0.285074
0.215841
0.136808
0.0530059
-0.0329706
-0.115952
-0.193402
-0.260396
-0.315485
-0.354589
-0.37874
-0.386437
-0.381684
-0.378432
-0.346644
-0.408616
-0.573333
0.501235
-4.26427
4.73196
-0.826681
0.660764
0.361894
0.338214
0.373073
0.376029
0.381711
0.373962
0.350207
0.31265
0.260262
0.197478
0.125505
0.0492642
-0.0290757
-0.104531
-0.174987
-0.235618
-0.285364
-0.319968
-0.340699
-0.34559
-0.337442
-0.332524
-0.296276
-0.319064
-0.617434
0.869965
-4.68829
5.1212
-1.1956
0.722502
0.26294
0.295533
0.328742
0.334506
0.343364
0.338358
0.317903
0.284683
0.237355
0.180561
0.115099
0.0458288
-0.025488
-0.0940069
-0.158016
-0.212742
-0.257522
-0.287874
-0.305364
-0.307533
-0.296195
-0.288423
-0.25377
-0.220229
-0.679229
1.23882
-5.07762
5.4689
-1.55302
0.797284
0.156086
0.261638
0.285704
0.296152
0.307662
0.305349
0.287981
0.258855
0.216218
0.164983
0.105521
0.0426758
-0.0221837
-0.0843096
-0.142381
-0.191631
-0.231814
-0.258158
-0.272626
-0.272127
-0.258128
-0.245628
-0.220064
-0.113506
-0.754074
1.59619
-5.42539
5.77015
-1.88892
0.879771
0.0435219
0.236929
0.243478
0.261146
0.274434
0.27483
0.260295
0.235027
0.196725
0.150645
0.096706
0.0397836
-0.0191409
-0.0753755
-0.127983
-0.172159
-0.208101
-0.230676
-0.242379
-0.239202
-0.22342
-0.20366
-0.195559
-0.00108629
-0.836635
1.93203
-5.7267
6.02199
-2.19525
0.964476
-0.0719538
0.221238
0.201683
0.229642
0.243487
0.246704
0.234703
0.213073
0.178757
0.137456
0.0885961
0.0371323
-0.0163397
-0.067146
-0.114733
-0.154209
-0.186256
-0.205283
-0.214524
-0.208564
-0.192229
-0.16214
-0.18009
0.114229
-0.92143
2.23831
-5.97858
6.22326
-2.46616
1.04625
-0.187184
0.213859
0.160095
0.201748
0.214614
0.220877
0.211065
0.192871
0.162204
0.125332
0.0811375
0.0347036
-0.0137618
-0.0595673
-0.102545
-0.137669
-0.166158
-0.18184
-0.18897
-0.180006
-0.16466
-0.120845
-0.172956
0.22928
-1.00332
2.50917
-6.17989
6.3744
-2.698
1.12068
-0.298932
0.213631
0.118679
0.177499
0.187611
0.197261
0.189245
0.17431
0.146965
0.114196
0.0742805
0.0324808
-0.0113906
-0.0525901
-0.0913427
-0.122439
-0.147696
-0.16021
-0.165626
-0.153324
-0.14075
-0.0797414
-0.172995
0.340827
-1.07789
2.74094
-6.33106
6.47712
-2.88912
1.18431
-0.404144
0.219058
0.0776017
0.156841
0.162285
0.17577
0.169111
0.157284
0.132944
0.103976
0.0679798
0.0304486
-0.00921073
-0.0461688
-0.0810547
-0.108423
-0.130764
-0.140261
-0.144406
-0.128324
-0.120445
-0.0389942
-0.178714
0.445816
-1.14168
2.93198
-6.43382
6.53415
-3.03957
1.23479
-0.50018
0.228455
0.0372059
0.139624
0.138472
0.156318
0.150537
0.141697
0.120052
0.0946068
0.0621933
0.0285928
-0.00720798
-0.0402614
-0.071615
-0.0955305
-0.115264
-0.121866
-0.125222
-0.10484
-0.103592
0.00105228
-0.18843
0.541606
-1.19236
3.08233
-6.49089
6.54889
-3.15082
1.27082
-0.584973
0.240099
-0.00202276
0.125599
0.116041
0.138811
0.133404
0.127455
0.108204
0.0860264
0.0568823
0.0269003
-0.00536938
-0.0348294
-0.0629625
-0.0836794
-0.101104
-0.104906
-0.107979
-0.0827394
-0.0899431
0.0399136
-0.20042
0.626127
-1.22863
3.19344
-6.50569
6.52521
-3.2253
1.29211
-0.657116
0.252364
-0.0395127
0.114435
0.0948986
0.123149
0.117603
0.114473
0.0973252
0.0781784
0.0520112
0.0253591
-0.00368287
-0.0298371
-0.0550407
-0.0727923
-0.0881965
-0.0892695
-0.0925761
-0.061928
-0.0791628
0.0770197
-0.213059
0.697973
-1.25019
3.26778
-6.4821
6.46718
-3.26616
1.29915
-0.715883
0.263831
-0.0746661
0.105728
0.0749954
0.109222
0.103031
0.102666
0.0873424
0.0710102
0.047547
0.023958
-0.00213732
-0.0252517
-0.047797
-0.0627976
-0.0764593
-0.0748558
-0.0789022
-0.0423532
-0.0708478
0.111774
-0.224926
0.756415
-1.25755
3.30845
-6.4242
6.37897
-3.27689
1.29302
-0.761176
0.273364
-0.106917
0.0990368
0.0563175
0.0969087
0.0896004
0.0919572
0.0781895
0.0644728
0.0434593
0.0226866
-0.000722372
-0.0210428
-0.0411824
-0.0536289
-0.0658131
-0.0615741
-0.0668348
-0.0239996
-0.0645525
0.143614
-0.234885
0.80136
-1.25178
3.31896
-6.33614
6.26464
-3.26114
1.27522
-0.793443
0.280146
-0.135781
0.0939029
0.0388825
0.0860782
0.0772305
0.0822689
0.0698054
0.0585204
0.0397201
0.0215352
0.000571583
-0.0171825
-0.0351514
-0.0452253
-0.0561816
-0.049345
-0.0562416
-0.00688293
-0.0598164
0.172058
-0.242117
0.833252
-1.23437
3.30296
-6.22201
6.12813
-3.22254
1.24744
-0.813554
0.283683
-0.160895
0.0898811
0.0227299
0.0765907
0.0658533
0.0735277
0.062134
0.05311
0.0363037
0.0204947
0.00175355
-0.0136452
-0.0296611
-0.0375306
-0.0474913
-0.0381
-0.0469821
0.0089593
-0.0561915
0.196745
-0.246124
0.852965
-1.20702
3.26408
-6.08575
5.97317
-3.1646
1.21143
-0.822676
0.283777
-0.182032
0.0865626
0.00791038
0.068301
0.0554107
0.065662
0.0551237
0.0482016
0.0331862
0.0195567
0.0028319
-0.0104072
-0.0246716
-0.0304937
-0.0396705
-0.027781
-0.0389105
0.0234779
-0.0532663
0.217453
-0.246706
0.861667
-1.17149
3.20582
-5.93109
5.80324
-3.09059
1.16892
-0.822154
0.280485
-0.199116
0.0835937
-0.00552439
0.0610627
0.0458539
0.058602
0.0487277
0.0437574
0.0303459
0.0187132
0.00381453
-0.0074467
-0.0201452
-0.0240679
-0.0326498
-0.018339
-0.0318798
0.0366226
-0.0506843
0.234106
-0.243914
0.860705
-1.12948
3.13147
-5.7615
5.62155
-3.00358
1.12149
-0.813403
0.274058
-0.212206
0.0806881
-0.0175316
0.054732
0.0371413
0.05228
0.0429034
0.0397419
0.0277625
0.0179568
0.00470882
-0.00474378
-0.0160467
-0.0182108
-0.0263617
-0.00973291
-0.0257461
0.0483516
-0.0481569
0.246771
-0.237995
0.851498
-1.08258
3.04406
-5.5802
5.43102
-2.90632
1.07058
-0.797829
0.264883
-0.221485
0.0776325
-0.0280849
0.0491721
0.0292375
0.0466308
0.0376121
0.0361217
0.0254178
0.0172803
0.00552171
-0.00228007
-0.0123427
-0.0128839
-0.0207411
-0.00192723
-0.0203722
0.0586396
-0.0454684
0.25563
-0.229333
0.835455
-1.03224
2.9464
-5.39011
5.23428
-2.80134
1.01745
-0.776763
0.253431
-0.227231
0.0742855
-0.0371796
0.0442567
0.0221107
0.0415918
0.0328186
0.0328653
0.0232946
0.0166772
0.00625975
-3.87858e-05
-0.00900194
-0.00805221
-0.0157258
0.00510924
-0.015632
0.0674822
-0.0424757
0.260966
-0.218392
0.81391
-0.97969
2.84098
-5.19385
5.03366
-2.69087
0.963187
-0.751426
0.240206
-0.229793
0.0705724
-0.044836
0.039873
0.0157315
0.0371034
0.0284907
0.0299431
0.0213776
0.0161412
0.00692909
0.00199552
-0.00599496
-0.00368391
-0.0112564
0.0114056
-0.0114129
0.0748998
-0.0391025
0.26313
-0.205674
0.78809
-0.926021
2.73003
-4.99376
4.83119
-2.57685
0.908693
-0.722906
0.22571
-0.229563
0.0664755
-0.0510986
0.0359239
0.0100711
0.0331099
0.0245992
0.0273273
0.0196523
0.0156664
0.00753547
0.00383705
-0.00329421
0.000250192
-0.00727759
0.0169905
-0.00761786
0.080937
-0.0353303
0.262516
-0.191674
0.759085
-0.872133
2.61553
-4.79185
4.62861
-2.46098
0.854727
-0.692148
0.210413
-0.226949
0.062023
-0.0560356
0.0323284
0.00509967
0.0295595
0.0211167
0.0249921
0.0181056
0.0152474
0.00808429
0.00549885
-0.000873873
0.003777
-0.00373768
0.021893
-0.00416648
0.0856616
-0.0311865
0.259533
-0.176858
0.727846
-0.818776
2.49916
-4.58984
4.42736
-2.3447
0.801898
-0.65996
0.194734
-0.222357
0.0572769
-0.0597346
0.0290223
0.000785977
0.0264047
0.0180181
0.0229132
0.0167253
0.014879
0.00858059
0.00699295
0.00129005
0.00692156
-0.000589561
0.026144
-0.000994855
0.0891608
-0.0267326
0.254589
-0.161646
0.695184
-0.766553
2.38237
-4.38921
4.22864
-2.2292
0.750689
-0.627016
0.179038
-0.216175
0.0523207
-0.0622985
0.0259569
-0.00290367
0.0236027
0.0152797
0.0210683
0.0155001
0.0145565
0.00902906
0.00833047
0.00321985
0.00970734
0.00220928
0.0297769
0.00194524
0.091537
-0.0220524
0.248071
-0.146396
0.661777
-0.715942
2.26635
-4.19112
4.03342
-2.11544
0.701468
-0.593869
0.163625
-0.208761
0.0472495
-0.0638408
0.0230977
-0.00600529
0.0211154
0.0128789
0.0194366
0.0144197
0.0142754
0.00943402
0.00952172
0.00493602
0.0121566
0.0046967
0.0328272
0.00468793
0.092903
-0.0172411
0.240338
-0.131408
0.62818
-0.667305
2.15208
-3.99652
3.84242
-2.00421
0.6545
-0.560963
0.148733
-0.200432
0.0421612
-0.0644806
0.0204221
-0.00855724
0.0189095
0.0107943
0.0179992
0.0134744
0.0140316
0.00979945
0.0105763
0.00645736
0.0142908
0.00690584
0.0353329
0.00725525
0.0933771
-0.0123971
0.231707
-0.11692
0.59484
-0.620904
2.04033
-3.80616
3.6562
-1.89606
0.609962
-0.528648
0.134545
-0.191468
0.0371492
-0.0643378
0.0179177
-0.0105998
0.0169561
0.00900502
0.0167389
0.0126549
0.0138214
0.010129
0.0115032
0.00780096
0.0161302
0.00886528
0.0373339
0.00965928
0.0930788
-0.0076142
0.222457
-0.103114
0.562107
-0.57691
1.93167
-3.62058
3.47515
-1.79142
0.567954
-0.497187
0.121192
-0.182105
0.0322977
-0.0635298
0.0155794
-0.0121745
0.0152305
0.00749119
0.01564
0.0119529
0.0136415
0.0104258
0.0123108
0.00898228
0.0176948
0.0105994
0.0388714
0.0119046
0.0921245
-0.00297746
0.212824
-0.0901192
0.530248
-0.535423
1.82654
-3.44014
3.29951
-1.69058
0.528512
-0.466776
0.10876
-0.172539
0.0276786
-0.0621676
0.0134075
-0.0133234
0.013712
0.00623336
0.0146887
0.0113602
0.0134889
0.010693
0.013007
0.0100152
0.0190037
0.0121288
0.039987
0.0139905
0.0906249
0.0014404
0.203003
-0.0780232
0.499457
-0.496475
1.72521
-3.26511
3.1294
-1.59369
0.491619
-0.437549
0.097295
-0.16293
0.0233501
-0.0603541
0.0114059
-0.0140885
0.0123835
0.00521278
0.0138724
0.0108695
0.0133609
0.010933
0.0135993
0.010912
0.0200755
0.0134703
0.0407226
0.0159126
0.0886822
0.00558065
0.193152
-0.066874
0.469868
-0.460049
1.62786
-3.09558
2.96486
-1.50082
0.457214
-0.40959
0.086815
-0.153402
0.0193558
-0.0581823
0.00958011
-0.0145107
0.0112306
0.00441138
0.0131802
0.0104735
0.0132551
0.0111482
0.0140947
0.0116836
0.0209281
0.0146381
0.0411187
0.0176653
0.0863889
0.0093989
0.183395
-0.0566891
0.441566
-0.426082
1.53454
-2.9316
2.80583
-1.41196
0.425203
-0.382942
0.0773107
-0.144051
0.0157255
-0.0557344
0.00793579
-0.0146294
0.0102419
0.00381175
0.0126022
0.0101656
0.0131695
0.0113405
0.0144997
0.0123396
0.0215788
0.0156434
0.0412143
0.0192423
0.0838267
0.0128647
0.173829
-0.0474604
0.414592
-0.394481
1.44526
-2.77311
2.65219
-1.32703
0.395466
-0.357615
0.0687534
-0.134949
0.0124761
-0.0530817
0.00647812
-0.0144817
0.00940771
0.00339734
0.0121302
0.00993962
0.0131025
0.0115117
0.0148205
0.0128883
0.022044
0.0164956
0.0410465
0.0206381
0.0810666
0.0159602
0.164522
-0.0391603
0.388957
-0.365126
1.35993
-2.61998
2.50379
-1.24593
0.367866
-0.333596
0.0610993
-0.126145
0.00961368
-0.0502848
0.00521083
-0.0141022
0.00872035
0.00315252
0.0117568
0.00978956
0.0130525
0.011663
0.0150631
0.013337
0.0223392
0.0172022
0.0406495
0.0218486
0.0781686
0.018679
0.155525
-0.031746
0.364646
-0.337879
1.27843
-2.47205
2.3604
-1.16847
0.342251
-0.31085
0.0542937
-0.117673
0.00713448
-0.0473942
0.00413588
-0.0135223
0.00817344
0.00306262
0.0114757
0.00970997
0.0130184
0.0117957
0.0152328
0.0136918
0.0224789
0.0177695
0.0400544
0.0228715
0.0751829
0.0210242
0.146869
-0.0251639
0.341623
-0.312592
1.20061
-2.32911
2.2218
-1.09448
0.318463
-0.289329
0.0482743
-0.109551
0.00502714
-0.0444511
0.00325332
-0.0127703
0.00776173
0.00311408
0.0112818
0.00969582
0.0129994
0.0119106
0.0153346
0.0139578
0.0224766
0.0182025
0.0392894
0.0237065
0.0721503
0.0230064
0.138574
-0.0193524
0.319839
-0.289107
1.12628
-2.19093
2.08773
-1.02376
0.296342
-0.268974
0.0429739
-0.101789
0.00327431
-0.0414882
0.00256125
-0.0118711
0.00748077
0.00329455
0.0111705
0.00974246
0.0129946
0.0120084
0.0153733
0.0141396
0.0223445
0.0185055
0.0383792
0.0243552
0.0691034
0.0246426
0.130648
-0.0142452
0.299234
-0.267263
1.05522
-2.05724
1.95791
-0.956075
0.275724
-0.24972
0.0383228
-0.0943871
0.00185417
-0.0385311
0.00205614
-0.0108462
0.00732686
0.00359288
0.0111383
0.00984568
0.0130036
0.0120897
0.0153529
0.0142406
0.0220938
0.018682
0.037345
0.0248206
0.0660673
0.025954
0.123092
-0.0097735
0.279744
-0.246899
0.987225
-1.92778
1.83208
-0.89121
0.256448
-0.2315
0.0342505
-0.087341
0.000741945
-0.035599
0.00173304
-0.00971386
0.00729688
0.00399924
0.0111823
0.0100017
0.0130261
0.0121549
0.0152773
0.0142637
0.0217341
0.0187351
0.036205
0.0251075
0.0630609
0.026965
0.115899
-0.00586737
0.261301
-0.227855
0.922063
-1.80228
1.70994
-0.828939
0.238357
-0.214247
0.0306869
-0.0806417
-8.88401e-05
-0.0327058
0.00158598
-0.00848912
0.00738818
0.00450515
0.0113
0.0102073
0.0130619
0.012204
0.0151498
0.0142113
0.0212739
0.0186671
0.034974
0.0252216
0.0600978
0.0277014
0.109061
-0.00245753
0.243836
-0.209974
0.85951
-1.68044
1.59121
-0.769043
0.221299
-0.197895
0.0275638
-0.0742783
-0.000665265
-0.0298607
0.00160847
-0.00718399
0.00759872
0.00510344
0.0114901
0.0104596
0.0131111
0.0122372
0.0149732
0.0140849
0.0207204
0.0184801
0.0336639
0.0251691
0.057187
0.02819
0.102567
0.00052369
0.227282
-0.193105
0.799346
-1.56199
1.47564
-0.711309
0.205127
-0.182381
0.0248155
-0.0682385
-0.00101408
-0.0270695
0.00179382
-0.00580762
0.00792698
0.00578835
0.0117513
0.0107562
0.0131737
0.0122543
0.0147499
0.0138855
0.0200793
0.0181755
0.0322838
0.0249563
0.054334
0.0284571
0.0964031
0.00314144
0.211577
-0.177102
0.741358
-1.44667
1.36296
-0.655542
0.189703
-0.167652
0.0223794
-0.0625102
-0.00116085
-0.0243345
0.00213565
-0.00436645
0.00837201
0.00655546
0.0120833
0.0110954
0.01325
0.0122553
0.014482
0.0136138
0.019355
0.0177541
0.0308398
0.0245895
0.0515408
0.0285278
0.0905574
0.00545751
0.196667
-0.161828
0.68535
-1.33422
1.25294
-0.601565
0.174898
-0.15366
0.0201974
-0.0570818
-0.00112926
-0.0216559
0.00262834
-0.00286442
0.00893365
0.00740169
0.0124862
0.0114757
0.0133405
0.0122398
0.0141707
0.0132695
0.0185506
0.0172159
0.0293358
0.024074
0.0488074
0.0284254
0.0850181
0.00752954
0.182502
-0.147155
0.631143
-1.2244
1.14536
-0.549229
0.160595
-0.140369
0.0182162
-0.0519435
-0.00094037
-0.0190315
0.00326742
-0.00130316
0.00961253
0.0083253
0.0129606
0.0118964
0.0134454
0.0122074
0.0138171
0.012852
0.0176678
0.0165604
0.0277734
0.023414
0.0461312
0.0281704
0.0797748
0.00941024
0.169048
-0.132966
0.578591
-1.117
1.04005
-0.498426
0.14669
-0.127757
0.0163883
-0.0470876
-0.000612091
-0.0164571
0.00404996
0.000317949
0.0104102
0.00932589
0.0135077
0.012357
0.0135656
0.0121578
0.0134215
0.0123603
0.0167071
0.0157859
0.0261519
0.0226122
0.0435079
0.0277805
0.0748195
0.0111464
0.156282
-0.119159
0.527581
-1.01186
0.936913
-0.449099
0.1331
-0.115821
0.0146735
-0.042509
-0.000158494
-0.0139273
0.004975
0.00200161
0.0113293
0.0104043
0.0141296
0.0128577
0.0137015
0.0120903
0.012984
0.0117924
0.0156677
0.0148897
0.0244684
0.0216694
0.0409318
0.0272692
0.0701467
0.0127775
0.144199
-0.105652
0.47806
-0.908862
0.835902
-0.401265
0.119766
-0.104575
0.0130399
-0.0382058
0.00041083
-0.0114348
0.00604385
0.00375255
0.0123738
0.0115627
0.0148287
0.0133992
0.0138542
0.0120043
0.0125041
0.011146
0.0145475
0.0138679
0.0227182
0.0205841
0.0383954
0.0266457
0.065754
0.0143346
0.132814
-0.0923866
0.430042
-0.807972
0.737104
-0.35504
0.106663
-0.0940612
0.0114657
-0.0341791
0.00109136
-0.0089709
0.00726051
0.00557749
0.0135488
0.0128045
0.0156081
0.0139828
0.0140243
0.0118991
0.0119806
0.010418
0.0133432
0.0127153
0.0208945
0.0193521
0.0358898
0.025914
0.0616425
0.0158388
0.122169
-0.0793392
0.383645
-0.709277
0.640774
-0.310679
0.0938064
-0.0843507
0.00994105
-0.0304333
0.00188436
-0.00652514
0.00863205
0.00748519
0.0148613
0.0141345
0.016472
0.0146101
0.0142131
0.0117738
0.0114121
0.00960451
0.0120501
0.0114251
0.0189885
0.017966
0.0334042
0.0250723
0.0578159
0.0172988
0.112335
-0.0665274
0.339126
-0.613033
0.547417
-0.268631
0.0812683
-0.0755482
0.00846979
-0.0269754
0.00279729
-0.00408541
0.0101686
0.00948612
0.0163193
0.0155583
0.0174248
0.0152832
0.0144216
0.0116275
0.0107966
0.00870113
0.0106626
0.00998895
0.0169897
0.0164157
0.0309264
0.0241126
0.054281
0.0187099
0.103416
-0.0540248
0.296931
-0.519745
0.45789
-0.22958
0.0691827
-0.0677894
0.00706903
-0.0238141
0.00384236
-0.00163893
0.0118816
0.0115908
0.0179311
0.0170816
0.0184707
0.0160042
0.0146508
0.0114594
0.0101323
0.00770386
0.00917521
0.00839889
0.0148875
0.0146893
0.0284433
0.0230222
0.0510462
0.0200535
0.0955497
-0.0419678
0.257751
-0.430272
0.373478
-0.194453
0.0576998
-0.0612145
0.00575463
-0.02095
0.00503273
0.000831526
0.0137836
0.0138125
0.0197056
0.0187114
0.0196144
0.0167757
0.0149017
0.0112687
0.00941664
0.00660823
0.00758105
0.00664606
0.0126688
0.0127744
0.0259375
0.0217873
0.0481118
0.0213128
0.0888752
-0.0305092
0.222514
-0.345899
0.295981
-0.164602
0.0469181
-0.0559612
0.00453865
-0.0183585
0.00640627
0.00337678
0.0159203
0.0161972
0.0216807
0.0204792
0.0208784
0.0176119
0.015179
0.0110515
0.00863632
0.00539218
0.00584907
0.00469271
0.0102874
0.0106248
0.0233576
0.0203692
0.0454519
0.0224739
0.0835298
-0.0197501
0.192574
-0.268428
0.229577
-0.143467
0.0375427
-0.052509
0.00362696
-0.0160666
0.00811826
0.00608374
0.0184306
0.018845
0.0239633
0.0224594
0.0223257
0.0185462
0.0154978
0.0107948
0.00775985
0.00399467
0.00390623
0.00243261
0.0076434
0.00810074
0.0206153
0.0186098
0.0430913
0.0233261
0.079992
-0.0104026
0.17138
-0.202037
0.18665
-0.140495
0.0345583
-0.0530442
0.00428863
-0.0146889
0.0104604
0.00866711
0.021309
0.0215525
0.0264689
0.0245067
0.0238867
0.0195064
0.0158501
0.0105044
0.00685743
0.00248308
0.0018966
-5.10267e-05
0.00494071
0.00520683
0.0179988
0.016215
0.0416509
0.0225923
0.0804608
-0.00746988
0.16839
-0.159117
0.000105054
-0.0841509
-0.0202707
0.322181
0.745859
1.10787
1.41434
1.68576
1.90256
2.01691
1.98347
1.77906
1.40985
0.906238
0.31652
-0.302099
-0.88891
-1.38737
-1.75029
-1.94861
-1.97718
-1.85975
-1.64155
-1.36987
-1.06354
-0.701521
-0.277631
0.0649833
0.12887
0.0446067
-0.0155583
-0.093786
0.0498833
0.444139
0.84751
1.16473
1.42984
1.6608
1.83539
1.91149
1.85323
1.64457
1.29371
0.828007
0.289163
-0.274158
-0.810369
-1.27136
-1.61638
-1.81922
-1.87265
-1.79327
-1.61697
-1.3855
-1.12041
-0.803203
-0.399645
-0.00519694
0.13851
0.0602731
-0.0354427
-0.0878615
0.141048
0.563359
0.929669
1.20136
1.42811
1.62121
1.75752
1.80101
1.72376
1.51502
1.18394
0.754856
0.263702
-0.248172
-0.736927
-1.16168
-1.48732
-1.69051
-1.763
-1.71607
-1.57781
-1.38394
-1.15707
-0.885387
-0.518918
-0.0963967
0.132586
0.0801604
-0.0581739
-0.0620408
0.247558
0.67331
0.993384
1.22278
1.41515
1.57458
1.6785
1.69617
1.60561
1.39963
1.08763
0.691226
0.241634
-0.225675
-0.67306
-1.06545
-1.37235
-1.57302
-1.65888
-1.63769
-1.53161
-1.37118
-1.17855
-0.949126
-0.628919
-0.202947
0.106758
0.102893
-0.0815399
-0.0126754
0.366482
0.772799
1.04152
1.23193
1.39274
1.52173
1.59776
1.59458
1.49476
1.29356
1.00022
0.63391
0.221818
-0.205492
-0.615538
-0.978109
-1.26665
-1.46276
-1.55798
-1.55757
-1.47919
-1.34901
-1.18778
-0.99729
-0.728455
-0.32192
0.0573767
0.126256
-0.101765
0.0626464
0.492121
0.858487
1.0748
1.23004
1.36183
1.46344
1.51558
1.49565
1.38974
1.19484
0.919773
0.5815
0.203751
-0.1871
-0.562945
-0.897717
-1.16824
-1.35827
-1.45966
-1.47598
-1.42136
-1.31836
-1.186
-1.03061
-0.81419
-0.447611
-0.0179692
0.146475
-0.113675
0.164271
0.61722
0.927157
1.09373
1.21789
1.32331
1.40079
1.43286
1.39983
1.29052
1.10306
0.845755
0.533573
0.187275
-0.170333
-0.514851
-0.823743
-1.07674
-1.25952
-1.36442
-1.39381
-1.35915
-1.28012
-1.17399
-1.0496
-0.882908
-0.572765
-0.119625
0.158376
-0.110953
0.289955
0.73412
0.977014
1.0994
1.19644
1.27819
1.33487
1.35045
1.30756
1.19707
1.01787
0.777709
0.489762
0.172254
-0.155048
-0.470885
-0.755729
-0.991802
-1.1665
-1.27267
-1.31193
-1.29367
-1.2353
-1.1527
-1.05533
-0.932816
-0.689724
-0.245347
0.15564
-0.0864754
0.434713
0.835551
1.00776
1.09325
1.16667
1.22752
1.2667
1.26908
1.21909
1.10923
0.938856
0.715135
0.449684
0.158547
-0.1411
-0.430662
-0.693177
-0.912999
-1.07904
-1.18468
-1.23105
-1.22593
-1.18495
-1.12311
-1.04927
-0.963619
-0.791216
-0.39015
0.131147
-0.0327802
0.590924
0.915335
1.02043
1.0768
1.12954
1.17238
1.19721
1.1893
1.13457
1.02679
0.865579
0.657565
0.412986
0.146026
-0.128356
-0.393827
-0.635619
-0.83991
-0.996941
-1.10061
-1.15174
-1.15686
-1.13012
-1.08618
-1.03292
-0.976349
-0.871065
-0.546412
0.0774323
0.0573771
0.748711
0.969021
1.0171
1.05146
1.086
1.11381
1.12724
1.1116
1.05411
0.949528
0.797643
0.604577
0.379358
0.134579
-0.1167
-0.360066
-0.582635
-0.772137
-0.919988
-1.02055
-1.07448
-1.08728
-1.07187
-1.04285
-1.0077
-0.973096
-0.92482
-0.704258
-0.0127478
0.19041
0.896583
0.994367
1.00059
1.01844
1.03701
1.05282
1.05751
1.03636
0.977737
0.877215
0.734675
0.555788
0.348519
0.124106
-0.106027
-0.329099
-0.533841
-0.709312
-0.847954
-0.944549
-0.999633
-1.01793
-1.01118
-0.994077
-0.974815
-0.956657
-0.95024
-0.852198
-0.145808
0.371301
1.02228
0.9916
0.973952
0.978714
0.983577
0.990358
0.988641
0.963855
0.905435
0.809615
0.676326
0.510849
0.320219
0.114515
-0.0962465
-0.300673
-0.48889
-0.651089
-0.780607
-0.87259
-0.92751
-0.94942
-0.94902
-0.940861
-0.935231
-0.930111
-0.947553
-0.977969
-0.326733
0.60307
1.11374
0.963414
0.940146
0.933028
0.926729
0.927288
0.921151
0.894317
0.837158
0.746491
0.622269
0.469444
0.294232
0.105726
-0.0872754
-0.274563
-0.447468
-0.597142
-0.717713
-0.80463
-0.858326
-0.882272
-0.886242
-0.884233
-0.889693
-0.896401
-0.919453
-1.06952
-0.558545
0.886373
1.16012
0.914715
0.901599
0.881988
0.86754
0.864369
0.855465
0.827896
0.772825
0.687606
0.5722
0.431286
0.270357
0.0976687
-0.0790405
-0.250566
-0.409286
-0.547169
-0.65904
-0.740592
-0.79224
-0.816912
-0.823605
-0.825263
-0.838805
-0.857955
-0.870842
-1.116
-0.841902
1.21927
1.15272
0.852124
0.859957
0.826175
0.807093
0.802241
0.791923
0.764691
0.712332
0.632729
0.525834
0.396111
0.24841
0.0902769
-0.071476
-0.228498
-0.374083
-0.500888
-0.604358
-0.680377
-0.729351
-0.753682
-0.76175
-0.765031
-0.783146
-0.816417
-0.808342
-1.10871
-1.17487
1.59723
1.08576
0.783315
0.815935
0.766266
0.746438
0.74142
0.730793
0.704752
0.655559
0.581634
0.482909
0.363682
0.228227
0.083493
-0.064523
-0.208194
-0.34162
-0.458038
-0.553444
-0.623865
-0.669714
-0.692852
-0.701193
-0.704587
-0.72339
-0.7725
-0.739622
-1.04186
-1.5529
2.01324
0.956882
0.716242
0.769325
0.703142
0.686535
0.682302
0.67228
0.64809
0.602369
0.534102
0.443178
0.33378
0.20966
0.0772648
-0.0581285
-0.189506
-0.31168
-0.418374
-0.506081
-0.570924
-0.613342
-0.634629
-0.642334
-0.64489
-0.66042
-0.725996
-0.672637
-0.913106
-1.96901
2.45827
0.767374
0.658371
0.719139
0.63796
0.628197
0.625186
0.616537
0.59468
0.552618
0.489923
0.406415
0.306207
0.192574
0.071545
-0.0522449
-0.172299
-0.284066
-0.381669
-0.462062
-0.521411
-0.560213
-0.57917
-0.585472
-0.586756
-0.59539
-0.675915
-0.614847
-0.723717
-2.41415
2.92175
0.522052
0.615974
0.663864
0.572169
0.572037
0.570288
0.563672
0.54447
0.506157
0.448897
0.372408
0.280781
0.176847
0.0662913
-0.0468292
-0.156452
-0.258595
-0.347714
-0.421185
-0.47518
-0.510277
-0.526583
-0.530825
-0.530799
-0.529749
-0.620743
-0.572526
-0.478511
-2.87774
3.39223
0.228856
0.593597
0.601788
0.507461
0.518431
0.517775
0.513747
0.497385
0.462834
0.41083
0.340961
0.257337
0.162368
0.0614652
-0.0418427
-0.141852
-0.235103
-0.316312
-0.383262
-0.432079
-0.463462
-0.476935
-0.478563
-0.477396
-0.465192
-0.558771
-0.550218
-0.185424
-3.34833
3.85804
-0.101812
0.593719
0.531358
0.44568
0.467499
0.467787
0.466787
0.453332
0.422495
0.37554
0.311892
0.235722
0.149038
0.0570319
-0.0372503
-0.128401
-0.213437
-0.287283
-0.348108
-0.391957
-0.419675
-0.430251
-0.428828
-0.42667