/*--------------------------------*- C++ -*----------------------------------*\
| =========                 |                                                 |
| \\      /  F ield         | OpenFOAM: The Open Source CFD Toolbox           |
|  \\    /   O peration     | Version:  2.4.0                                 |
|   \\  /    A nd           | Web:      www.OpenFOAM.org                      |
|    \\/     M anipulation  |                                                 |
\*---------------------------------------------------------------------------*/
FoamFile
{
    version     2.0;
    format      ascii;
    class       surfaceScalarField;
    location    "0.04";
    object      phi;
}
// * * * * * * * * * * * * * * * * * * * * * * * * * * * * * * * * * * * * * //

dimensions      [0 3 -1 0 0 0 0];

internalField   nonuniform List<scalar> 
14230
(
5.11721e-16
-1.93751e-16
-1.95117e-15
2.4629e-15
-1.35469e-14
1.15958e-14
-2.68284e-14
1.32815e-14
-2.49032e-14
-1.92521e-15
1.36884e-14
-3.85916e-14
1.12764e-13
-9.90754e-14
2.94124e-13
-1.8136e-13
5.68663e-13
-2.74538e-13
9.26365e-13
-3.57703e-13
1.33319e-12
-4.0683e-13
1.73696e-12
-4.03764e-13
2.0792e-12
-3.4224e-13
2.30782e-12
-2.28624e-13
2.38749e-12
-7.96644e-14
2.30586e-12
8.16256e-14
2.07579e-12
2.30068e-13
1.73296e-12
3.42838e-13
1.32946e-12
4.03492e-13
9.23521e-13
4.05944e-13
5.6691e-13
3.56611e-13
2.93295e-13
2.73615e-13
1.12498e-13
1.80797e-13
1.36491e-14
9.88485e-14
-2.4902e-14
3.85511e-14
-2.68337e-14
1.93173e-15
-1.35506e-14
-1.32831e-14
-1.95119e-15
-1.15995e-14
5.1132e-16
-2.46252e-15
1.93236e-16
3.18078e-16
-1.4783e-16
7.46202e-16
-1.03366e-14
1.26517e-14
-3.57591e-14
3.70183e-14
-5.30604e-14
3.05828e-14
-1.06562e-14
-4.43294e-14
1.56754e-13
-2.06002e-13
5.11392e-13
-4.53714e-13
1.09932e-12
-7.69289e-13
1.93054e-12
-1.10576e-12
2.96069e-12
-1.38785e-12
4.09025e-12
-1.53639e-12
5.18259e-12
-1.4961e-12
6.09235e-12
-1.25199e-12
6.69358e-12
-8.29857e-13
6.90204e-12
-2.88127e-13
6.68856e-12
2.9511e-13
6.08353e-12
8.351e-13
5.172e-12
1.25437e-12
4.08005e-12
1.49544e-12
2.95253e-12
1.53347e-12
1.92514e-12
1.384e-12
1.09646e-12
1.1023e-12
5.1026e-13
7.66994e-13
1.56468e-13
4.5264e-13
-1.06864e-14
2.05706e-13
-5.30651e-14
4.43104e-14
-3.57665e-14
-3.05817e-14
-1.03386e-14
-3.70274e-14
-1.48275e-16
-1.26529e-14
-7.46898e-16
7.91853e-16
-2.70922e-15
4.18543e-15
-2.42905e-14
3.42329e-14
-6.24303e-14
7.51581e-14
-6.42504e-14
3.2403e-14
6.30689e-14
-1.71649e-13
4.196e-13
-5.62533e-13
1.09023e-12
-1.12435e-12
2.12703e-12
-1.80609e-12
3.52122e-12
-2.49995e-12
5.18455e-12
-3.05118e-12
6.95683e-12
-3.30867e-12
8.63526e-12
-3.17454e-12
1.00131e-11
-2.62986e-12
1.09156e-11
-1.73233e-12
1.12272e-11
-5.99746e-13
1.09082e-11
6.14107e-13
1e-11
1.7433e-12
8.61923e-12
2.63516e-12
6.94096e-12
3.17371e-12
5.17135e-12
3.30308e-12
3.51199e-12
3.04336e-12
2.12173e-12
2.49256e-12
1.08787e-12
1.80086e-12
4.18857e-13
1.12165e-12
6.29357e-14
5.61627e-13
-6.42637e-14
1.7151e-13
-6.24399e-14
-3.24055e-14
-2.4295e-14
-7.51723e-14
-2.70986e-15
-3.42381e-14
-4.18626e-15
7.29495e-16
-8.40321e-15
1.22221e-14
-4.42636e-14
7.00933e-14
-8.57496e-14
1.16644e-13
-4.03207e-14
-1.3026e-14
2.22319e-13
-4.34288e-13
8.24953e-13
-1.16517e-12
1.86154e-12
-2.16093e-12
3.37478e-12
-3.31933e-12
5.32431e-12
-4.44948e-12
7.57446e-12
-5.30132e-12
9.91235e-12
-5.64656e-12
1.20859e-11
-5.3481e-12
1.38475e-11
-4.39145e-12
1.49921e-11
-2.87694e-12
1.53859e-11
-9.93515e-13
1.4983e-11
1.01703e-12
1.38311e-11
2.89517e-12
1.20655e-11
4.40076e-12
9.89163e-12
5.34757e-12
7.55661e-12
5.6381e-12
5.31122e-12
5.28875e-12
3.36676e-12
4.43702e-12
1.8576e-12
3.31002e-12
8.23517e-13
2.15573e-12
2.21981e-13
1.16316e-12
-4.0365e-14
4.33855e-13
-8.5762e-14
1.29915e-14
-4.42706e-14
-1.16664e-13
-8.40391e-15
-7.01048e-14
-1.22232e-14
-3.66984e-16
-1.84031e-14
2.71504e-14
-6.81753e-14
1.19866e-13
-9.51095e-14
1.43578e-13
3.70326e-14
-1.45168e-13
4.87164e-13
-8.84419e-13
1.38844e-12
-2.06644e-12
2.83131e-12
-3.6038e-12
4.83617e-12
-5.3242e-12
7.323e-12
-6.93631e-12
1.01097e-11
-8.08798e-12
1.29402e-11
-8.47714e-12
1.55283e-11
-7.93617e-12
1.76016e-11
-6.46472e-12
1.89389e-11
-4.21427e-12
1.93974e-11
-1.45205e-12
1.89285e-11
1.486e-12
1.75827e-11
4.24094e-12
1.55044e-11
6.479e-12
1.29155e-11
7.93655e-12
1.00876e-11
8.46592e-12
7.30616e-12
8.07024e-12
4.82524e-12
6.91793e-12
2.8255e-12
5.30977e-12
1.38606e-12
3.59517e-12
4.86488e-13
2.06274e-12
3.69169e-14
8.83426e-13
-9.5129e-14
1.45037e-13
-6.81848e-14
-1.43608e-13
-1.84044e-14
-1.19885e-13
-2.71524e-14
-3.4752e-15
-3.3309e-14
5.07787e-14
-9.16063e-14
1.78163e-13
-7.73445e-14
1.29317e-13
1.86916e-13
-4.09429e-13
8.76593e-13
-1.5741e-12
2.12344e-12
-3.31329e-12
4.00311e-12
-5.48347e-12
6.50369e-12
-7.82478e-12
9.50163e-12
-9.93425e-12
1.27724e-11
-1.13588e-11
1.60273e-11
-1.1732e-11
1.89585e-11
-1.08673e-11
2.12817e-11
-8.78794e-12
2.27702e-11
-5.70282e-12
2.32791e-11
-1.96089e-12
2.27589e-11
2.00615e-12
2.1261e-11
5.73882e-12
1.8932e-11
8.80804e-12
1.59993e-11
1.08693e-11
1.27468e-11
1.17184e-11
9.48123e-12
1.13358e-11
6.48976e-12
9.9094e-12
3.99518e-12
7.80435e-12
2.11986e-12
5.47049e-12
8.7542e-13
3.30718e-12
1.86668e-13
1.57218e-12
-7.73824e-14
4.09087e-13
-9.16187e-14
-1.29372e-13
-3.33113e-14
-1.78193e-13
-5.07827e-14
-9.68103e-15
-5.25868e-14
8.34625e-14
-1.07237e-13
2.32813e-13
-1.65771e-14
3.86565e-14
4.29117e-13
-8.55123e-13
1.4083e-12
-2.55328e-12
3.04086e-12
-4.94585e-12
5.37804e-12
-7.82064e-12
8.36858e-12
-1.08153e-11
1.18452e-11
-1.34108e-11
1.55471e-11
-1.50608e-11
1.91628e-11
-1.53477e-11
2.23738e-11
-1.40783e-11
2.4894e-11
-1.13082e-11
2.64988e-11
-7.30766e-12
2.70459e-11
-2.50795e-12
2.6487e-11
2.56504e-12
2.48722e-11
7.3536e-12
2.23455e-11
1.13348e-11
1.91322e-11
1.40826e-11
1.55184e-11
1.53322e-11
1.18215e-11
1.50327e-11
8.35166e-12
1.33792e-11
5.36781e-12
1.07882e-11
3.03586e-12
7.80243e-12
1.40645e-12
4.93659e-12
4.28652e-13
2.54998e-12
-1.66545e-14
8.54394e-13
-1.07254e-13
-3.87719e-14
-5.25904e-14
-2.32856e-13
-8.34699e-14
-1.99033e-14
-7.39329e-14
1.22903e-13
-1.04482e-13
2.63362e-13
1.055e-13
-1.71326e-13
7.83671e-13
-1.53329e-12
2.09848e-12
-3.86809e-12
4.14927e-12
-6.99664e-12
6.95499e-12
-1.06264e-11
1.04211e-11
-1.42815e-11
1.43392e-11
-1.73289e-11
1.84198e-11
-1.91414e-11
2.23375e-11
-1.92654e-11
2.57726e-11
-1.75134e-11
2.84445e-11
-1.398e-11
3.01362e-11
-8.99936e-12
3.07114e-11
-3.08314e-12
3.01241e-11
3.15233e-12
2.84221e-11
9.05561e-12
2.57431e-11
1.40138e-11
2.23051e-11
1.75206e-11
1.83885e-11
1.92487e-11
1.43126e-11
1.91087e-11
1.04013e-11
1.72905e-11
6.94234e-12
1.42472e-11
4.14262e-12
1.06022e-11
2.09577e-12
6.98344e-12
7.82885e-13
3.86286e-12
1.05349e-13
1.53193e-12
-1.04508e-13
1.71086e-13
-7.39381e-14
-2.63426e-13
-1.22915e-13
-3.4493e-14
-9.26087e-14
1.62798e-13
-6.9318e-14
2.40071e-13
3.09076e-13
-5.4972e-13
1.27023e-12
-2.49445e-12
2.96148e-12
-5.55934e-12
5.4548e-12
-9.48996e-12
8.73093e-12
-1.39025e-11
1.2651e-11
-1.82015e-11
1.69701e-11
-2.1648e-11
2.13781e-11
-2.35494e-11
2.55441e-11
-2.34314e-11
2.91541e-11
-2.11234e-11
3.19387e-11
-1.67646e-11
3.36925e-11
-1.07531e-11
3.42874e-11
-3.67805e-12
3.36804e-11
3.75933e-12
3.19162e-11
1.08199e-11
2.9124e-11
1.68059e-11
2.55104e-11
2.11343e-11
2.13449e-11
2.34143e-11
1.6941e-11
2.35125e-11
1.26284e-11
2.1603e-11
8.71581e-12
1.81598e-11
5.44632e-12
1.38716e-11
2.95771e-12
9.47205e-12
1.269e-12
5.55158e-12
3.08803e-13
2.49212e-12
-6.93633e-14
5.49253e-13
-9.26161e-14
-2.40174e-13
-1.62818e-13
-5.27132e-14
-1.00823e-13
1.9149e-13
1.56486e-14
1.23599e-13
6.15561e-13
-1.14963e-12
1.9075e-12
-3.78639e-12
4.0096e-12
-7.66143e-12
6.96129e-12
-1.24417e-11
1.07012e-11
-1.76424e-11
1.50475e-11
-2.25479e-11
1.97253e-11
-2.63258e-11
2.44113e-11
-2.82354e-11
2.87764e-11
-2.77965e-11
3.25181e-11
-2.48651e-11
3.53821e-11
-1.96286e-11
3.71771e-11
-1.25481e-11
3.77846e-11
-4.2856e-12
3.71652e-11
4.37879e-12
3.53597e-11
1.26253e-11
3.24879e-11
1.96777e-11
2.8742e-11
2.48802e-11
2.43766e-11
2.77797e-11
1.9694e-11
2.81951e-11
1.50224e-11
2.62746e-11
1.06836e-11
2.24986e-11
6.95086e-12
1.76044e-11
4.00459e-12
1.24183e-11
1.90569e-12
7.65048e-12
6.15102e-13
3.78271e-12
1.55685e-14
1.14879e-12
-1.00834e-13
-1.23771e-13
-1.9152e-13
-7.2132e-14
-8.72357e-14
1.90748e-13
1.70878e-13
-1.34514e-13
1.04687e-12
-2.02562e-12
2.71284e-12
-5.45236e-12
5.25297e-12
-1.02016e-11
8.67042e-12
-1.58591e-11
1.28597e-11
-2.18317e-11
1.75999e-11
-2.72881e-11
2.25929e-11
-3.13189e-11
2.75098e-11
-3.31522e-11
3.20295e-11
-3.23162e-11
3.58649e-11
-2.87005e-11
3.87797e-11
-2.25434e-11
4.05981e-11
-1.43665e-11
4.12124e-11
-4.89989e-12
4.05865e-11
5.00465e-12
3.87578e-11
1.4454e-11
3.5835e-11
2.26004e-11
3.19949e-11
2.87204e-11
2.74742e-11
3.23004e-11
2.256e-11
3.31093e-11
1.75726e-11
3.1262e-11
1.28397e-11
2.72314e-11
8.65794e-12
2.17862e-11
5.24656e-12
1.58297e-11
2.7103e-12
1.01867e-11
1.04614e-12
5.44686e-12
1.70739e-13
2.02419e-12
-8.72533e-14
1.34221e-13
-1.90796e-13
-8.79778e-14
-3.66418e-14
1.34873e-13
4.19356e-13
-5.90513e-13
1.62469e-12
-3.23095e-12
3.70184e-12
-7.52951e-12
6.6995e-12
-1.31992e-11
1.05818e-11
-1.97414e-11
1.51994e-11
-2.64492e-11
2.02975e-11
-3.23861e-11
2.55622e-11
-3.65836e-11
3.06655e-11
-3.82556e-11
3.52993e-11
-3.69499e-11
3.91951e-11
-3.25963e-11
4.2136e-11
-2.54844e-11
4.3963e-11
-1.61935e-11
4.45791e-11
-5.51596e-12
4.39519e-11
5.63181e-12
4.21149e-11
1.62911e-11
3.91659e-11
2.55494e-11
3.52649e-11
3.26214e-11
3.06295e-11
3.69358e-11
2.5528e-11
3.82108e-11
2.02682e-11
3.65218e-11
1.51772e-11
3.23225e-11
1.05673e-11
2.63961e-11
6.69156e-12
1.97054e-11
3.69841e-12
1.31799e-11
1.6236e-12
7.52167e-12
4.19124e-13
3.22867e-12
-3.66715e-14
5.90017e-13
-1.34949e-13
-9.25181e-14
7.00935e-14
-9.74761e-15
7.85859e-13
-1.30628e-12
2.36979e-12
-4.81488e-12
4.88809e-12
-1.00478e-11
8.3549e-12
-1.6666e-11
1.26934e-11
-2.408e-11
1.77123e-11
-3.14681e-11
2.31298e-11
-3.78035e-11
2.86232e-11
-4.20771e-11
3.38713e-11
-4.35037e-11
3.85826e-11
-4.16611e-11
4.25095e-11
-3.65233e-11
4.54557e-11
-2.84305e-11
4.72786e-11
-1.80164e-11
4.78923e-11
-6.12965e-12
4.72681e-11
6.25602e-12
4.54355e-11
1.81237e-11
4.24814e-11
2.85036e-11
3.85489e-11
3.65538e-11
3.38353e-11
4.16494e-11
2.85882e-11
4.34579e-11
2.3099e-11
4.20111e-11
1.76882e-11
3.77333e-11
1.26768e-11
3.14074e-11
8.3453e-12
2.4037e-11
4.88365e-12
1.66415e-11
2.36824e-12
1.00371e-11
7.85489e-13
4.81143e-12
7.00429e-14
1.30546e-12
9.62118e-15
-7.45275e-14
2.55829e-13
-2.84489e-13
1.29606e-12
-2.34651e-12
3.30142e-12
-6.82024e-12
6.28305e-12
-1.30295e-11
1.02227e-11
-2.06057e-11
1.50014e-11
-2.88587e-11
2.03901e-11
-3.68567e-11
2.60867e-11
-4.35002e-11
3.1767e-11
-4.77573e-11
3.7121e-11
-4.88577e-11
4.18769e-11
-4.64171e-11
4.58093e-11
-4.04557e-11
4.87426e-11
-3.13638e-11
5.05508e-11
-1.98246e-11
5.11586e-11
-6.73745e-12
5.0541e-11
6.87369e-12
4.87235e-11
1.99411e-11
4.57825e-11
3.14446e-11
4.18443e-11
4.04919e-11
3.70854e-11
4.64083e-11
3.17316e-11
4.88117e-11
2.60548e-11
4.76879e-11
2.03641e-11
4.34239e-11
1.49829e-11
3.67887e-11
1.02114e-11
2.88085e-11
6.27746e-12
2.05755e-11
3.2993e-12
1.30152e-11
1.2955e-12
6.81523e-12
2.55745e-13
2.34522e-12
2.84279e-13
-1.89136e-14
5.46652e-13
-7.37704e-13
1.97559e-12
-3.77545e-12
4.43682e-12
-9.28147e-12
7.8959e-12
-1.64885e-11
1.23043e-11
-2.5014e-11
1.75007e-11
-3.40552e-11
2.32237e-11
-4.25797e-11
2.91587e-11
-4.94352e-11
3.49853e-11
-5.35839e-11
4.04093e-11
-5.42817e-11
4.51803e-11
-5.11881e-11
4.90958e-11
-4.43712e-11
5.20006e-11
-3.42686e-11
5.37851e-11
-2.16091e-11
5.43841e-11
-7.33642e-12
5.3776e-11
7.48181e-12
5.19828e-11
2.17342e-11
4.90704e-11
3.4357e-11
4.51491e-11
4.44133e-11
4.03746e-11
5.11828e-11
3.495e-11
5.42363e-11
2.9126e-11
5.3512e-11
2.31962e-11
4.93537e-11
1.74803e-11
4.25046e-11
1.22913e-11
3.39975e-11
7.88905e-12
2.49777e-11
4.43401e-12
1.64703e-11
1.97476e-12
9.27447e-12
5.46514e-13
3.77347e-12
7.37358e-13
9.34359e-14
9.71111e-13
-1.42326e-12
2.84902e-12
-5.65336e-12
5.79085e-12
-1.22233e-11
9.73356e-12
-2.04312e-11
1.45992e-11
-2.98797e-11
2.0185e-11
-3.9641e-11
2.62042e-11
-4.85989e-11
3.23366e-11
-5.55676e-11
3.82709e-11
-5.95182e-11
4.37316e-11
-5.97425e-11
4.84913e-11
-5.59478e-11
5.23702e-11
-4.82501e-11
5.52333e-11
-3.71317e-11
5.69864e-11
-2.33622e-11
5.7574e-11
-7.9241e-12
5.6978e-11
8.07788e-12
5.52168e-11
2.34954e-11
5.23465e-11
3.72273e-11
4.84617e-11
4.82981e-11
4.36981e-11
5.59465e-11
3.8236e-11
5.96983e-11
3.23034e-11
5.94446e-11
2.61755e-11
5.54816e-11
2.01629e-11
4.85171e-11
1.45845e-11
3.9576e-11
9.72536e-12
2.98368e-11
5.78725e-12
2.04084e-11
2.84787e-12
1.22139e-11
9.70896e-13
5.65044e-12
1.4227e-12
2.85549e-13
1.55923e-12
-2.39851e-12
3.93906e-12
-8.03319e-12
7.37584e-12
-1.56601e-11
1.18007e-11
-2.48561e-11
1.71051e-11
-3.51841e-11
2.30471e-11
-4.55829e-11
2.93224e-11
-5.48742e-11
3.56117e-11
-6.18569e-11
4.16171e-11
-6.55235e-11
4.70841e-11
-6.52095e-11
5.18088e-11
-6.06725e-11
5.56339e-11
-5.20752e-11
5.84438e-11
-3.99416e-11
6.0159e-11
-2.50774e-11
6.07333e-11
-8.49838e-12
6.01514e-11
8.65977e-12
5.84288e-11
2.5218e-11
5.5612e-11
4.00441e-11
5.1781e-11
5.21291e-11
4.7052e-11
6.06754e-11
4.15831e-11
6.51673e-11
3.55785e-11
6.54491e-11
2.92929e-11
6.17672e-11
2.30235e-11
5.47865e-11
1.70888e-11
4.55108e-11
1.17911e-11
3.51344e-11
7.37135e-12
2.48282e-11
3.9375e-12
1.56477e-11
1.55891e-12
8.02904e-12
2.39763e-12
5.83979e-13
2.34137e-12
-3.72175e-12
5.26573e-12
-1.09575e-11
9.20146e-12
-1.95958e-11
1.40999e-11
-2.97545e-11
1.9818e-11
-4.09022e-11
2.6079e-11
-5.18438e-11
3.25694e-11
-6.13647e-11
3.89761e-11
-6.82636e-11
4.5018e-11
-7.15654e-11
5.04634e-11
-7.06548e-11
5.51319e-11
-6.53411e-11
5.88882e-11
-5.58315e-11
6.16351e-11
-4.26884e-11
6.33069e-11
-2.67492e-11
6.3866e-11
-9.05753e-12
6.33001e-11
9.22571e-12
6.16215e-11
2.68965e-11
5.88682e-11
4.27974e-11
5.51061e-11
5.58912e-11
5.04331e-11
6.53485e-11
4.49851e-11
7.06152e-11
3.89432e-11
7.1491e-11
3.25394e-11
6.81711e-11
2.60542e-11
6.12716e-11
1.98002e-11
5.17648e-11
1.40889e-11
4.08457e-11
9.19599e-12
2.97211e-11
5.26369e-12
1.958e-11
2.34091e-12
1.09518e-11
3.72041e-12
1.01813e-12
3.34705e-12
-5.44943e-12
6.84586e-12
-1.44564e-11
1.12748e-11
-2.40247e-11
1.66315e-11
-3.51113e-11
2.27325e-11
-4.70032e-11
2.92722e-11
-5.83836e-11
3.59364e-11
-6.80288e-11
4.24222e-11
-7.47495e-11
4.84684e-11
-7.76116e-11
5.38666e-11
-7.60531e-11
5.84602e-11
-6.99346e-11
6.21345e-11
-5.95059e-11
6.48099e-11
-4.53638e-11
6.64337e-11
-2.8373e-11
6.69762e-11
-9.60005e-12
6.64277e-11
9.77422e-12
6.47979e-11
2.85263e-11
6.21165e-11
4.54788e-11
5.84365e-11
5.95712e-11
5.38383e-11
6.99468e-11
4.84369e-11
7.60166e-11
4.239e-11
7.7538e-11
3.59061e-11
7.4655e-11
2.92466e-11
6.79312e-11
2.27132e-11
5.82982e-11
1.66191e-11
4.69398e-11
1.12683e-11
3.50719e-11
6.84326e-12
2.4005e-11
3.34641e-12
1.44487e-11
5.44745e-12
1.61936e-12
4.60376e-12
-7.63331e-12
8.69275e-12
-1.85453e-11
1.36004e-11
-2.89324e-11
1.93941e-11
-4.0905e-11
2.58417e-11
-5.34508e-11
3.26181e-11
-6.51599e-11
3.94147e-11
-7.48255e-11
4.5943e-11
-8.12778e-11
5.19634e-11
-8.3632e-11
5.72915e-11
-8.13812e-11
6.17932e-11
-7.44363e-11
6.53741e-11
-6.30868e-11
6.79708e-11
-4.79605e-11
6.95426e-11
-2.99448e-11
7.00673e-11
-1.01247e-11
6.95374e-11
1.0304e-11
6.79603e-11
3.01035e-11
6.53581e-11
4.8081e-11
6.17718e-11
6.31575e-11
5.72653e-11
7.44533e-11
5.19337e-11
8.13481e-11
4.59119e-11
8.35598e-11
3.93847e-11
8.11821e-11
3.25918e-11
7.47241e-11
2.58213e-11
6.50687e-11
1.93804e-11
5.33807e-11
1.35928e-11
4.08595e-11
8.68952e-12
2.89083e-11
4.60289e-12
1.85353e-11
7.63047e-12
2.41987e-12
6.13594e-12
-1.03177e-11
1.0816e-11
-2.32254e-11
1.61806e-11
-3.42969e-11
2.23842e-11
-4.71086e-11
2.9138e-11
-6.02046e-11
3.61076e-11
-7.21295e-11
4.29964e-11
-8.17143e-11
4.95323e-11
-8.78136e-11
5.54989e-11
-8.95986e-11
6.07358e-11
-8.6618e-11
6.51307e-11
-7.88313e-11
6.86082e-11
-6.65643e-11
7.112e-11
-5.04722e-11
7.26365e-11
-3.14614e-11
7.31423e-11
-1.06305e-11
7.26321e-11
1.08142e-11
7.1111e-11
3.16246e-11
6.85943e-11
5.05977e-11
6.51117e-11
6.66401e-11
6.07119e-11
7.88531e-11
5.54712e-11
8.65889e-11
4.95024e-11
8.95286e-11
4.29668e-11
8.77177e-11
3.6081e-11
8.16099e-11
2.91166e-11
7.2033e-11
2.23693e-11
6.0128e-11
1.61719e-11
4.70569e-11
1.08121e-11
3.42681e-11
6.13481e-12
2.32126e-11
1.03138e-11
3.45152e-12
7.96416e-12
-1.35373e-11
1.32218e-11
-2.8483e-11
1.90154e-11
-4.00906e-11
2.55968e-11
-5.36899e-11
3.26126e-11
-6.72205e-11
3.97318e-11
-7.92486e-11
4.66734e-11
-8.8656e-11
5.31839e-11
-9.43241e-11
5.90712e-11
-9.54859e-11
6.41978e-11
-9.17447e-11
6.84728e-11
-8.31062e-11
7.18381e-11
-6.99296e-11
7.42596e-11
-5.28937e-11
7.5718e-11
-3.29198e-11
7.62039e-11
-1.11164e-11
7.57144e-11
1.13037e-11
7.42521e-11
3.30869e-11
7.18262e-11
5.30236e-11
6.84561e-11
7.00103e-11
6.41763e-11
8.31328e-11
5.90455e-11
9.17196e-11
5.31556e-11
9.54185e-11
4.66447e-11
9.42286e-11
3.97051e-11
8.85495e-11
3.25906e-11
7.91476e-11
2.55808e-11
6.71378e-11
1.90057e-11
5.36319e-11
1.32172e-11
4.00567e-11
7.96273e-12
2.8467e-11
1.35319e-11
4.74461e-12
1.01046e-11
-1.7315e-11
1.59127e-11
-3.42912e-11
2.21031e-11
-4.6281e-11
2.90251e-11
-6.06119e-11
3.62565e-11
-7.44519e-11
4.34818e-11
-8.6474e-11
5.04385e-11
-9.56127e-11
5.68925e-11
-1.00778e-10
6.26768e-11
-1.0127e-10
6.76761e-11
-9.6744e-11
7.18192e-11
-8.72494e-11
7.50648e-11
-7.31751e-11
7.73915e-11
-5.52204e-11
7.87894e-11
-3.43177e-11
7.92548e-11
-1.15819e-11
7.87866e-11
1.17719e-11
7.73855e-11
3.44881e-11
7.50549e-11
5.53541e-11
7.18049e-11
7.32602e-11
6.76571e-11
8.72807e-11
6.26534e-11
9.67233e-11
5.6866e-11
1.01206e-10
5.04108e-11
1.00684e-10
4.34555e-11
9.55048e-11
3.62339e-11
8.63691e-11
2.90082e-11
7.43635e-11
2.20924e-11
6.05477e-11
1.59074e-11
4.62417e-11
1.01028e-11
3.42716e-11
1.73079e-11
6.32681e-12
1.25685e-11
-2.16614e-11
1.88887e-11
-4.06114e-11
2.54401e-11
-5.28323e-11
3.26612e-11
-6.78331e-11
4.00599e-11
-8.18505e-11
4.73491e-11
-9.37632e-11
5.42845e-11
-1.02548e-10
6.06532e-11
-1.07147e-10
6.63128e-11
-1.0693e-10
7.11693e-11
-1.016e-10
7.51703e-11
-9.12503e-11
7.82894e-11
-7.62941e-11
8.05174e-11
-5.74484e-11
8.18528e-11
-3.56531e-11
8.22971e-11
-1.20262e-11
8.18507e-11
1.22183e-11
8.05128e-11
3.5826e-11
7.82815e-11
5.75854e-11
7.51584e-11
7.63834e-11
7.11529e-11
9.12862e-11
6.62919e-11
1.01584e-10
6.06287e-11
1.06869e-10
5.42582e-11
1.07054e-10
4.73233e-11
1.0244e-10
4.00372e-11
9.36553e-11
3.26436e-11
8.17571e-11
2.54284e-11
6.77629e-11
1.88826e-11
5.27876e-11
1.25664e-11
4.05879e-11
2.16521e-11
8.22213e-12
1.53627e-11
-2.65738e-11
2.21469e-11
-4.73957e-11
2.90208e-11
-5.97062e-11
3.64958e-11
-7.53081e-11
4.40131e-11
-8.93678e-11
5.13252e-11
-1.01075e-10
5.82049e-11
-1.09428e-10
6.44614e-11
-1.13403e-10
6.99766e-11
-1.12445e-10
7.46764e-11
-1.063e-10
7.8526e-11
-9.50999e-11
8.15129e-11
-7.9281e-11
8.36388e-11
-5.95744e-11
8.49101e-11
-3.69244e-11
8.53327e-11
-1.24488e-11
8.49087e-11
1.26422e-11
8.36357e-11
3.70991e-11
8.1507e-11
5.9714e-11
7.85164e-11
7.93739e-11
7.46625e-11
9.51401e-11
6.99581e-11
1.06289e-10
6.44391e-11
1.12388e-10
5.81802e-11
1.13313e-10
5.13003e-11
1.0932e-10
4.39905e-11
1.00965e-10
3.64777e-11
8.92699e-11
2.90084e-11
7.52322e-11
2.21401e-11
5.96558e-11
1.53602e-11
4.73678e-11
2.65621e-11
1.04503e-11
1.84892e-11
-3.20369e-11
2.56824e-11
-5.45889e-11
3.28386e-11
-6.68623e-11
4.05189e-11
-8.29884e-11
4.81064e-11
-9.69554e-11
5.54021e-11
-1.08371e-10
6.21934e-11
-1.16219e-10
6.8313e-11
-1.19523e-10
7.36657e-11
-1.17798e-10
7.81965e-11
-1.10831e-10
8.18865e-11
-9.87899e-11
8.47362e-11
-8.21308e-11
8.67573e-11
-6.15954e-11
8.79629e-11
-3.813e-11
8.83635e-11
-1.28493e-11
8.79623e-11
1.30434e-11
8.67554e-11
3.83059e-11
8.47322e-11
6.17372e-11
8.18793e-11
8.22269e-11
7.81851e-11
9.88343e-11
7.36499e-11
1.10824e-10
6.8293e-11
1.17745e-10
6.21706e-11
1.19436e-10
5.53783e-11
1.16112e-10
4.80842e-11
1.08259e-10
4.05004e-11
9.68536e-11
3.28255e-11
8.29071e-11
2.5675e-11
6.68063e-11
1.84863e-11
5.45565e-11
3.20222e-11
1.30261e-11
2.1946e-11
-3.80233e-11
2.94885e-11
-6.21315e-11
3.6885e-11
-7.42587e-11
4.47194e-11
-9.08228e-11
5.23301e-11
-1.04566e-10
5.95721e-11
-1.15613e-10
6.62444e-11
-1.22891e-10
7.22041e-11
-1.25483e-10
7.73781e-11
-1.22972e-10
8.17287e-11
-1.15182e-10
8.5252e-11
-1.02313e-10
8.79602e-11
-8.4839e-11
8.98739e-11
-6.35092e-11
9.10128e-11
-3.92689e-11
9.13909e-11
-1.32274e-11
9.10128e-11
1.34215e-11
8.98734e-11
3.94454e-11
8.7958e-11
6.36526e-11
8.5247e-11
8.49379e-11
8.17199e-11
1.02361e-10
7.73649e-11
1.15179e-10
7.21865e-11
1.22923e-10
6.62235e-11
1.25399e-10
5.95497e-11
1.22786e-10
5.23085e-11
1.155e-10
4.47009e-11
1.04461e-10
3.68714e-11
9.07366e-11
2.94805e-11
7.41972e-11
2.19427e-11
6.20943e-11
3.80054e-11
1.59596e-11
2.57276e-11
-4.44952e-11
3.3557e-11
-6.99609e-11
4.11504e-11
-8.18521e-11
4.90861e-11
-9.87585e-11
5.66749e-11
-1.12155e-10
6.38278e-11
-1.22766e-10
7.03524e-11
-1.29416e-10
7.61314e-11
-1.31262e-10
8.11119e-11
-1.27952e-10
8.52723e-11
-1.19342e-10
8.86226e-11
-1.05663e-10
9.11856e-11
-8.74019e-11
9.299e-11
-6.53135e-11
9.40611e-11
-4.034e-11
9.44165e-11
-1.35827e-11
9.40618e-11
1.37762e-11
9.29907e-11
4.05165e-11
9.11852e-11
6.5458e-11
8.86199e-11
8.75032e-11
8.5266e-11
1.05715e-10
8.11013e-11
1.19344e-10
7.61164e-11
1.27908e-10
7.03336e-11
1.31181e-10
6.38069e-11
1.29312e-10
5.66541e-11
1.22653e-10
4.90678e-11
1.12047e-10
4.11365e-11
9.8668e-11
3.35485e-11
8.17853e-11
2.57239e-11
6.99188e-11
4.44737e-11
1.92557e-11
2.98253e-11
-5.14058e-11
3.78785e-11
-7.80141e-11
4.56241e-11
-8.95977e-11
5.36077e-11
-1.06742e-10
6.11318e-11
-1.19679e-10
6.81622e-11
-1.29796e-10
7.45124e-11
-1.35766e-10
8.00918e-11
-1.36841e-10
8.48655e-11
-1.32726e-10
8.88269e-11
-1.23304e-10
9.19986e-11
-1.08835e-10
9.44131e-11
-8.98164e-11
9.61064e-11
-6.70069e-11
9.7109e-11
-4.13426e-11
9.74413e-11
-1.39151e-11
9.71102e-11
1.41073e-11
9.61082e-11
4.15185e-11
9.44144e-11
6.71519e-11
9.1998e-11
8.99196e-11
8.8823e-11
1.0889e-10
8.48574e-11
1.23309e-10
8.00793e-11
1.32686e-10
7.44959e-11
1.36765e-10
6.81431e-11
1.35665e-10
6.11121e-11
1.29684e-10
5.35898e-11
1.1957e-10
4.56101e-11
1.06648e-10
3.78696e-11
8.95258e-11
2.98214e-11
7.7967e-11
5.13803e-11
2.29147e-11
3.42283e-11
-5.87011e-11
4.24426e-11
-8.62284e-11
5.02945e-11
-9.74497e-11
5.82726e-11
-1.1472e-10
6.56922e-11
-1.27099e-10
7.25687e-11
-1.36673e-10
7.87199e-11
-1.41917e-10
8.40824e-11
-1.42204e-10
8.86372e-11
-1.37281e-10
9.23917e-11
-1.27058e-10
9.53801e-11
-1.11824e-10
9.76433e-11
-9.20796e-11
9.92241e-11
-6.85877e-11
1.00157e-10
-4.2276e-11
1.00467e-10
-1.42243e-11
1.00159e-10
1.44147e-11
9.9227e-11
4.24507e-11
9.76462e-11
6.87327e-11
9.53815e-11
9.21842e-11
9.23902e-11
1.11882e-10
8.86317e-11
1.27068e-10
8.40725e-11
1.37246e-10
7.87058e-11
1.42132e-10
7.25515e-11
1.41819e-10
6.56739e-11
1.36562e-10
5.82554e-11
1.26988e-10
5.02805e-11
1.14623e-10
4.24333e-11
9.7373e-11
3.4224e-11
8.61763e-11
5.86713e-11
2.6933e-11
3.89237e-11
-6.63218e-11
4.72378e-11
-9.45425e-11
5.51492e-11
-1.05361e-10
6.30698e-11
-1.22641e-10
7.03481e-11
-1.34377e-10
7.70411e-11
-1.43366e-10
8.29707e-11
-1.47847e-10
8.81007e-11
-1.47334e-10
9.24257e-11
-1.41606e-10
9.59665e-11
-1.30599e-10
9.87672e-11
-1.14624e-10
1.00877e-10
-9.41891e-11
1.02344e-10
-7.00548e-11
1.03208e-10
-4.31396e-11
1.03493e-10
-1.45101e-11
1.0321e-10
1.46982e-11
1.02348e-10
4.33127e-11
1.00881e-10
7.01994e-11
9.87706e-11
9.42948e-11
9.59673e-11
1.14685e-10
9.24228e-11
1.30612e-10
8.80934e-11
1.41575e-10
8.2959e-11
1.47266e-10
7.7026e-11
1.47753e-10
7.03313e-11
1.43256e-10
6.30535e-11
1.34266e-10
5.51354e-11
1.22541e-10
4.72284e-11
1.0528e-10
3.89192e-11
9.44855e-11
6.62875e-11
3.1303e-11
4.38973e-11
-7.4205e-11
5.22522e-11
-1.02897e-10
6.01752e-11
-1.13284e-10
6.79887e-11
-1.30454e-10
7.50917e-11
-1.4148e-10
8.15735e-11
-1.49847e-10
8.72609e-11
-1.53534e-10
9.21444e-11
-1.52217e-10
9.62299e-11
-1.45691e-10
9.95507e-11
-1.3392e-10
1.0216e-10
-1.17234e-10
1.04114e-10
-9.61431e-11
1.05466e-10
-7.14071e-11
1.0626e-10
-4.39331e-11
1.06522e-10
-1.47724e-11
1.06263e-10
1.49578e-11
1.05471e-10
4.41041e-11
1.0412e-10
7.15508e-11
1.02165e-10
9.62494e-11
9.95537e-11
1.17296e-10
9.62294e-11
1.33937e-10
9.21396e-11
1.45665e-10
8.72516e-11
1.52154e-10
8.15605e-11
1.53444e-10
7.50765e-11
1.49741e-10
6.79733e-11
1.41369e-10
6.01619e-11
1.30352e-10
5.22428e-11
1.13199e-10
4.38926e-11
1.02836e-10
7.41661e-11
3.60141e-11
4.91339e-11
-8.22856e-11
5.7473e-11
-1.11237e-10
6.53597e-11
-1.21171e-10
7.3019e-11
-1.38114e-10
7.99156e-11
-1.48376e-10
8.61604e-11
-1.56092e-10
9.1587e-11
-1.58961e-10
9.62113e-11
-1.56842e-10
1.00049e-10
-1.49528e-10
1.03144e-10
-1.37015e-10
1.05559e-10
-1.19649e-10
1.07356e-10
-9.79396e-11
1.08592e-10
-7.26439e-11
1.09315e-10
-4.46561e-11
1.09554e-10
-1.50112e-11
1.09319e-10
1.51934e-11
1.08598e-10
4.48245e-11
1.07363e-10
7.27863e-11
1.05566e-10
9.80461e-11
1.03149e-10
1.19713e-10
1.0005e-10
1.37035e-10
9.6209e-11
1.49506e-10
9.15802e-11
1.56783e-10
8.61497e-11
1.58874e-10
7.99022e-11
1.55988e-10
7.30048e-11
1.48267e-10
6.5347e-11
1.3801e-10
5.74638e-11
1.21082e-10
4.91291e-11
1.1117e-10
8.2242e-11
4.10532e-11
5.46177e-11
-9.04979e-11
6.28872e-11
-1.19506e-10
7.06898e-11
-1.28973e-10
7.81512e-11
-1.45575e-10
8.48131e-11
-1.55038e-10
9.07969e-11
-1.62076e-10
9.59458e-11
-1.6411e-10
1.00299e-10
-1.61195e-10
1.03881e-10
-1.5311e-10
1.06746e-10
-1.39881e-10
1.08964e-10
-1.21866e-10
1.10602e-10
-9.95774e-11
1.11722e-10
-7.37646e-11
1.12375e-10
-4.53083e-11
1.1259e-10
-1.52264e-11
1.12378e-10
1.5405e-11
1.11729e-10
4.54738e-11
1.1061e-10
7.39052e-11
1.08972e-10
9.96837e-11
1.06753e-10
1.21932e-10
1.03885e-10
1.39904e-10
1.003e-10
1.53092e-10
9.59414e-11
1.61141e-10
9.07884e-11
1.64027e-10
8.48016e-11
1.61975e-10
7.81385e-11
1.5493e-10
7.06778e-11
1.45471e-10
6.28781e-11
1.28882e-10
5.46128e-11
1.19436e-10
9.04494e-11
4.64054e-11
6.03323e-11
-9.87763e-11
6.84811e-11
-1.27655e-10
7.61527e-11
-1.36645e-10
8.33766e-11
-1.52799e-10
8.97777e-11
-1.61439e-10
9.54781e-11
-1.67776e-10
1.00334e-10
-1.68966e-10
1.04407e-10
-1.65268e-10
1.07726e-10
-1.56428e-10
1.10357e-10
-1.42512e-10
1.12375e-10
-1.23884e-10
1.13853e-10
-1.01055e-10
1.14857e-10
-7.47685e-11
1.15438e-10
-4.58896e-11
1.15629e-10
-1.54179e-11
1.15442e-10
1.55925e-11
1.14864e-10
4.60518e-11
1.13862e-10
7.4907e-11
1.12385e-10
1.01161e-10
1.10366e-10
1.23951e-10
1.07732e-10
1.42538e-10
1.0441e-10
1.56414e-10
1.00332e-10
1.65218e-10
9.54719e-11
1.68888e-10
8.97681e-11
1.67678e-10
8.33653e-11
1.61333e-10
7.61416e-11
1.52694e-10
6.84725e-11
1.36551e-10
6.03276e-11
1.27581e-10
9.8723e-11
5.20539e-11
6.62615e-11
-1.07057e-10
7.42413e-11
-1.35635e-10
8.17364e-11
-1.4414e-10
8.86869e-11
-1.59749e-10
9.48032e-11
-1.67556e-10
1.002e-10
-1.73173e-10
1.0475e-10
-1.73517e-10
1.08533e-10
-1.69051e-10
1.11583e-10
-1.59478e-10
1.13976e-10
-1.44905e-10
1.15792e-10
-1.257e-10
1.17109e-10
-1.02372e-10
1.17996e-10
-7.56553e-11
1.18506e-10
-4.63999e-11
1.18674e-10
-1.55856e-11
1.1851e-10
1.5756e-11
1.18004e-10
4.65585e-11
1.17119e-10
7.57913e-11
1.15804e-10
1.02477e-10
1.13987e-10
1.25768e-10
1.11591e-10
1.44934e-10
1.08537e-10
1.59467e-10
1.04751e-10
1.69005e-10
1.00196e-10
1.73442e-10
9.47956e-11
1.73079e-10
8.86772e-11
1.67451e-10
8.17264e-11
1.59645e-10
7.42332e-11
1.44044e-10
6.62569e-11
1.35557e-10
1.06999e-10
5.79812e-11
7.23888e-11
-1.15277e-10
8.01542e-11
-1.434e-10
8.74295e-11
-1.51415e-10
9.40744e-11
-1.66394e-10
9.98838e-11
-1.73365e-10
1.04958e-10
-1.78247e-10
1.09191e-10
-1.7775e-10
1.12675e-10
-1.72535e-10
1.1545e-10
-1.62254e-10
1.17603e-10
-1.47058e-10
1.19216e-10
-1.27313e-10
1.20371e-10
-1.03527e-10
1.2114e-10
-7.64247e-11
1.21579e-10
-4.68391e-11
1.21723e-10
-1.57297e-11
1.21584e-10
1.58954e-11
1.21149e-10
4.69937e-11
1.20382e-10
7.65579e-11
1.19228e-10
1.03631e-10
1.17615e-10
1.27381e-10
1.15461e-10
1.47088e-10
1.12682e-10
1.62246e-10
1.09193e-10
1.72493e-10
1.04956e-10
1.7768e-10
9.98783e-11
1.78157e-10
9.40664e-11
1.73263e-10
8.74207e-11
1.66291e-10
8.01467e-11
1.51318e-10
7.23843e-11
1.43319e-10
1.15214e-10
6.41689e-11
7.8698e-11
-1.23376e-10
8.62066e-11
-1.50909e-10
9.32213e-11
-1.5843e-10
9.95321e-11
-1.72705e-10
1.05014e-10
-1.78847e-10
1.09749e-10
-1.82982e-10
1.13654e-10
-1.81654e-10
1.16832e-10
-1.75713e-10
1.19329e-10
-1.6475e-10
1.21238e-10
-1.48967e-10
1.22645e-10
-1.28721e-10
1.23638e-10
-1.0452e-10
1.2429e-10
-7.70765e-11
1.24658e-10
-4.72072e-11
1.24778e-10
-1.58499e-11
1.24663e-10
1.60109e-11
1.24299e-10
4.73576e-11
1.2365e-10
7.72066e-11
1.22659e-10
1.04622e-10
1.21251e-10
1.28789e-10
1.19341e-10
1.48999e-10
1.16841e-10
1.64746e-10
1.13659e-10
1.75675e-10
1.0975e-10
1.81589e-10
1.05011e-10
1.82895e-10
9.95258e-11
1.78748e-10
9.32137e-11
1.72603e-10
8.61998e-11
1.58332e-10
7.86938e-11
1.50825e-10
1.2331e-10
7.05982e-11
8.51733e-11
-1.313e-10
9.23857e-11
-1.58121e-10
9.91019e-11
-1.65146e-10
1.05053e-10
-1.78657e-10
1.10189e-10
-1.83983e-10
1.1457e-10
-1.87362e-10
1.18138e-10
-1.85222e-10
1.21003e-10
-1.78579e-10
1.23217e-10
-1.66964e-10
1.2488e-10
-1.5063e-10
1.26081e-10
-1.29922e-10
1.26911e-10
-1.05349e-10
1.27445e-10
-7.76105e-11
1.27742e-10
-4.75042e-11
1.27839e-10
-1.59465e-11
1.27747e-10
1.61024e-11
1.27455e-10
4.765e-11
1.26924e-10
7.77372e-11
1.26096e-10
1.0545e-10
1.24895e-10
1.2999e-10
1.2323e-10
1.50663e-10
1.21014e-10
1.66962e-10
1.18144e-10
1.78545e-10
1.14572e-10
1.85161e-10
1.10188e-10
1.8728e-10
1.05049e-10
1.83887e-10
9.90956e-11
1.78556e-10
9.23797e-11
1.65048e-10
8.51694e-11
1.58036e-10
1.31229e-10
7.72502e-11
9.17993e-11
-1.38993e-10
9.86793e-11
-1.65001e-10
1.05062e-10
-1.71529e-10
1.10632e-10
-1.84227e-10
1.15405e-10
-1.88755e-10
1.19417e-10
-1.91375e-10
1.2264e-10
-1.88445e-10
1.25187e-10
-1.81126e-10
1.27114e-10
-1.68891e-10
1.28529e-10
-1.52045e-10
1.29524e-10
-1.30917e-10
1.3019e-10
-1.06016e-10
1.30606e-10
-7.80267e-11
1.30832e-10
-4.773e-11
1.30905e-10
-1.60193e-11
1.30837e-10
1.617e-11
1.30616e-10
4.78712e-11
1.30204e-10
7.81498e-11
1.29539e-10
1.06114e-10
1.28545e-10
1.30984e-10
1.2713e-10
1.52079e-10
1.252e-10
1.68892e-10
1.22649e-10
1.81096e-10
1.19422e-10
1.88388e-10
1.15405e-10
1.91297e-10
1.1063e-10
1.88663e-10
1.05057e-10
1.84129e-10
9.86743e-11