/*--------------------------------*- C++ -*----------------------------------*\
| =========                 |                                                 |
| \\      /  F ield         | OpenFOAM: The Open Source CFD Toolbox           |
|  \\    /   O peration     | Version:  2.4.0                                 |
|   \\  /    A nd           | Web:      www.OpenFOAM.org                      |
|    \\/     M anipulation  |                                                 |
\*---------------------------------------------------------------------------*/
FoamFile
{
    version     2.0;
    format      ascii;
    class       volVectorField;
    location    "0.04";
    object      U;
}
// * * * * * * * * * * * * * * * * * * * * * * * * * * * * * * * * * * * * * //

dimensions      [0 1 -1 0 0 0 0];

internalField   nonuniform List<vector> 
7200
(
(3.52058e-07 5.51605e-07 0)
(1.61989e-06 2.80964e-06 1.86189e-23)
(-1.29657e-05 -2.81157e-05 -1.98422e-24)
(-5.61459e-05 -0.000102081 -3.69902e-24)
(-9.0375e-05 -0.000133156 4.68229e-22)
(-4.73911e-05 -4.03301e-05 -1.54148e-21)
(0.000144576 0.000198562 -1.88407e-23)
(0.000562567 0.000568636 2.09036e-23)
(0.00127159 0.00101903 3.55584e-21)
(0.00228612 0.00145674 -6.23869e-23)
(0.00354071 0.00176314 2.1268e-21)
(0.00489157 0.0018317 1.91172e-21)
(0.00614771 0.00160569 1.54143e-21)
(0.00711531 0.00109825 0)
(0.00763977 0.000390242 2.00776e-24)
(0.00763641 -0.000389828 0)
(0.00710618 -0.00109668 5.18088e-24)
(0.00613523 -0.0016024 6.11025e-23)
(0.00487874 -0.00182701 -1.84771e-21)
(0.00353006 -0.00175805 -8.42132e-23)
(0.00227897 -0.00145242 -3.01977e-23)
(0.00126783 -0.00101621 6.98416e-21)
(0.00056116 -0.000567319 -2.13339e-23)
(0.000144291 -0.000198208 -2.15547e-21)
(-4.73877e-05 4.03465e-05 -7.40707e-22)
(-9.03788e-05 0.00013316 -4.4564e-22)
(-5.61602e-05 0.000102102 0)
(-1.29686e-05 2.81211e-05 -1.20767e-23)
(1.62035e-06 -2.8113e-06 1.43658e-23)
(3.51485e-07 -5.5224e-07 -1.61233e-24)
(1.23693e-07 2.24145e-06 3.90401e-26)
(-4.49983e-06 -5.04541e-06 -1.51095e-23)
(-4.96189e-05 -0.000125645 -5.82251e-23)
(-0.000142085 -0.000317266 -6.87652e-24)
(-0.00015949 -0.000316192 -6.90876e-22)
(0.000100096 5.46028e-05 -6.90133e-23)
(0.000841016 0.000813516 2.35763e-23)
(0.00225701 0.00188999 -4.22634e-21)
(0.0044761 0.00312079 -2.01604e-22)
(0.0074752 0.00424832 2.70575e-21)
(0.0110318 0.00497392 -2.78877e-21)
(0.0147477 0.00504932 -2.84302e-21)
(0.018132 0.00435769 -4.37976e-21)
(0.0207041 0.00295212 -6.84812e-22)
(0.0220878 0.00104476 6.61335e-23)
(0.0220793 -0.00104185 5.70023e-23)
(0.0206806 -0.00294659 -6.62242e-22)
(0.0180993 -0.00434824 2.2503e-21)
(0.0147133 -0.00503658 2.16911e-22)
(0.011002 -0.00496018 -2.98646e-21)
(0.007454 -0.00423636 2.77907e-21)
(0.0044639 -0.00311256 -2.42837e-22)
(0.00225167 -0.00188576 -4.26121e-21)
(0.000839463 -0.000812111 3.25805e-21)
(9.98938e-05 -5.44067e-05 1.1423e-21)
(-0.000159488 0.000316204 1.38063e-21)
(-0.000142105 0.000317317 6.38276e-24)
(-4.96308e-05 0.000125666 1.08426e-23)
(-4.50007e-06 5.04263e-06 -2.25554e-23)
(1.23118e-07 -2.24371e-06 3.05364e-25)
(-1.02393e-06 3.47289e-06 -2.01425e-24)
(-1.91892e-05 -3.12184e-05 1.22863e-25)
(-0.000108654 -0.000250206 -5.4736e-23)
(-0.00022863 -0.000497565 4.53606e-22)
(-0.000135398 -0.000366746 -8.65593e-22)
(0.000493213 0.000350064 2.52224e-21)
(0.00196145 0.00163878 0)
(0.0045356 0.00335668 4.35273e-21)
(0.00834812 0.00522579 -5.19591e-21)
(0.0132882 0.00685329 -2.81833e-21)
(0.0189631 0.00781812 2.61937e-22)
(0.0247551 0.00779291 -2.10319e-23)
(0.0299438 0.00664249 2.11456e-21)
(0.0338447 0.00446581 6.89668e-22)
(0.0359308 0.00157561 -1.74997e-24)
(0.0359183 -0.00156843 -1.07484e-22)
(0.03381 -0.00445543 6.70671e-22)
(0.0298949 -0.00662728 0)
(0.0247023 -0.00777365 4.96884e-21)
(0.0189161 -0.00779768 2.58562e-21)
(0.0132531 -0.0068353 -2.71886e-21)
(0.00832655 -0.00521296 -5.03804e-21)
(0.00452515 -0.00334964 -3.03156e-23)
(0.00195782 -0.00163613 1.66896e-21)
(0.000492477 -0.000349543 1.6583e-23)
(-0.000135448 0.000366781 -1.59979e-21)
(-0.000228651 0.000497626 0)
(-0.000108674 0.000250242 -2.80093e-23)
(-1.91921e-05 3.12165e-05 0)
(-1.02477e-06 -3.47723e-06 2.92518e-24)
(-4.64383e-06 2.83819e-06 2.23686e-24)
(-4.73462e-05 -7.73221e-05 0)
(-0.000181979 -0.00038703 1.08507e-22)
(-0.000275998 -0.000620702 8.4402e-23)
(4.43066e-05 -0.000279394 8.87569e-22)
(0.001195 0.000827051 -1.30219e-21)
(0.00355026 0.00263353 -2.81954e-23)
(0.00740701 0.00491491 -4.09667e-21)
(0.0128532 0.00728646 0)
(0.0196584 0.0092529 -3.95505e-23)
(0.0272628 0.0103183 2.70019e-21)
(0.0348671 0.0101207 -2.24511e-21)
(0.0415812 0.0085324 1.67077e-23)
(0.0465809 0.00569782 0)
(0.0492404 0.00200495 5.10411e-23)
(0.0492248 -0.00199215 9.96077e-23)
(0.0465376 -0.00568183 0)
(0.0415194 -0.00851163 1.63736e-23)
(0.0347992 -0.010096 -2.3839e-21)
(0.0272006 -0.0102927 -2.64292e-21)
(0.0196101 -0.00923025 0)
(0.0128217 -0.0072699 0)
(0.0073905 -0.00490536 4.01336e-21)
(0.00354373 -0.00262957 -1.69224e-21)
(0.0011933 -0.000826093 -1.24975e-21)
(4.40889e-05 0.00027948 8.46613e-22)
(-0.000276025 0.000620758 0)
(-0.000182005 0.000387074 1.51652e-22)
(-4.73527e-05 7.73211e-05 6.07731e-26)
(-4.64401e-06 -2.84517e-06 0)
(-1.26117e-05 -1.25386e-06 4.86925e-24)
(-9.08599e-05 -0.0001423 1.05114e-24)
(-0.000254706 -0.000518768 -1.25149e-24)
(-0.000245268 -0.000665842 7.24682e-23)
(0.000429975 -4.97282e-05 1.00155e-21)
(0.00225149 0.00146881 2.23715e-23)
(0.00563434 0.00376268 -5.30739e-23)
(0.0108658 0.00652103 4.21309e-21)
(0.017951 0.00926758 0)
(0.0265241 0.0114369 -2.42523e-21)
(0.0358712 0.0124962 3.91443e-23)
(0.0450489 0.0120799 1.56918e-22)
(0.0530475 0.0100832 1.54882e-23)
(0.0589528 0.00669228 1.47035e-24)
(0.0620787 0.00234936 -5.27435e-23)
(0.062061 -0.00232995 -4.62363e-23)
(0.0589032 -0.00667013 5.15369e-22)
(0.052976 -0.010057 0)
(0.0449687 -0.0120505 -1.79402e-23)
(0.0357958 -0.0124666 1.73026e-23)
(0.0264634 -0.0114108 3.7613e-23)
(0.0179096 -0.00924822 -3.54273e-23)
(0.0108425 -0.00650942 -4.06656e-21)
(0.0056241 -0.0037575 -1.64146e-21)
(0.00224833 -0.00146737 1.29669e-21)
(0.000429407 4.98919e-05 9.59607e-22)
(-0.000245328 0.000665881 6.03441e-22)
(-0.000254735 0.00051881 -1.58451e-22)
(-9.08713e-05 0.000142298 0)
(-1.26118e-05 1.24297e-06 0)
(-2.68675e-05 -1.03133e-05 9.82989e-25)
(-0.000148205 -0.000222067 2.64302e-23)
(-0.000305025 -0.000626642 -2.26071e-24)
(-9.38269e-05 -0.000616731 6.23725e-23)
(0.00107043 0.000320331 7.97843e-24)
(0.00370361 0.0022542 2.00098e-23)
(0.00823352 0.00499025 0)
(0.0149011 0.00813462 0)
(0.0236019 0.0111392 2.16917e-21)
(0.0338305 0.013398 4.63107e-21)
(0.044739 0.0143706 -2.13375e-21)
(0.0552748 0.0137091 4.02756e-21)
(0.0643497 0.0113394 0)
(0.0709973 0.00748393 0)
(0.0745009 0.00262181 0)
(0.0744817 -0.00259507 0)
(0.0709433 -0.00745519 -5.1412e-22)
(0.064271 -0.0113078 -4.95795e-24)
(0.0551851 -0.0136756 -1.88016e-21)
(0.0446527 -0.014338 -1.6134e-23)
(0.0337588 -0.0133696 0)
(0.0235507 -0.011118 0)
(0.0148705 -0.00812153 0)
(0.00821887 -0.0049841 3.29339e-21)
(0.00369844 -0.00225232 1.92371e-23)
(0.00106926 -0.000320089 -1.00057e-21)
(-9.39759e-05 0.000616739 -6.23025e-22)
(-0.000305059 0.000626667 0)
(-0.000148221 0.000222058 0)
(-2.6868e-05 1.02961e-05 0)
(-4.88238e-05 -2.55021e-05 -7.26889e-24)
(-0.000212858 -0.000309628 -7.69876e-23)
(-0.000303404 -0.000692177 -3.51984e-24)
(0.000224397 -0.000462934 6.24884e-23)
(0.00201253 0.000822904 -1.09433e-21)
(0.00558674 0.00315891 -2.25794e-23)
(0.0113604 0.00628092 -1.60158e-21)
(0.0194969 0.00972004 -2.94661e-23)
(0.0297659 0.012878 -8.98623e-23)
(0.0415285 0.0151338 -4.47449e-21)
(0.0538248 0.0159613 4.28237e-21)
(0.0655253 0.015043 -1.9407e-21)
(0.0754962 0.0123392 -1.32965e-23)
(0.0827484 0.00810195 4.54266e-22)
(0.0865554 0.00283306 -1.25988e-24)
(0.0865353 -0.00279851 1.19722e-24)
(0.0826916 -0.00806633 -4.37435e-22)
(0.0754126 -0.0123022 -6.75015e-22)
(0.0654285 -0.0150059 1.88023e-21)
(0.0537296 -0.0159264 1.50288e-23)
(0.041447 -0.015104 3.3906e-23)
(0.0297054 -0.0128558 -3.20604e-23)
(0.0194588 -0.00970613 -2.85432e-23)
(0.0113408 -0.00627416 -3.2001e-21)
(0.00557899 -0.00315673 -2.18007e-23)
(0.00201044 -0.000822625 -1.04704e-21)
(0.000224063 0.000462883 -7.47866e-22)
(-0.000303453 0.000692165 -7.24204e-24)
(-0.000212879 0.000309603 0)
(-4.88249e-05 2.54744e-05 0)
(-7.852e-05 -4.74008e-05 0)
(-0.000271788 -0.00039552 5.62416e-23)
(-0.000212837 -0.000698813 0)
(0.000757651 -0.000200299 -8.33382e-22)
(0.0033005 0.00144498 1.64376e-23)
(0.00793061 0.00415651 0)
(0.0150211 0.007601 1.68076e-21)
(0.0246329 0.0112468 0)
(0.0364037 0.0144671 -2.09233e-21)
(0.0495731 0.0166466 2.11714e-21)
(0.0630933 0.0172887 -3.95115e-21)
(0.0757854 0.0161139 2.80304e-24)
(0.0864968 0.0131163 6.66082e-22)
(0.0942369 0.00857157 -3.7305e-23)
(0.0982854 0.00299237 0)
(0.0982648 -0.00294971 3.31576e-23)
(0.0941787 -0.0085289 8.43379e-22)
(0.0864101 -0.0130742 6.87366e-22)
(0.0756838 -0.0160735 1.44493e-23)
(0.0629912 -0.0172521 -1.873e-21)
(0.0494833 -0.0166163 0)
(0.0363346 -0.0144447 -1.88086e-21)
(0.0245872 -0.0112327 -2.85943e-23)
(0.014996 -0.00759411 3.16444e-21)
(0.00791974 -0.00415427 4.16507e-23)
(0.00329713 -0.00144477 1.05588e-21)
(0.000756992 0.000200138 -3.47546e-23)
(-0.000212925 0.000698733 -4.52425e-24)
(-0.000271813 0.000395465 3.27125e-24)
(-7.85217e-05 4.73555e-05 0)
(-0.000113551 -7.58381e-05 2.45227e-25)
(-0.000304131 -0.000468543 -1.30245e-22)
(1.02265e-05 -0.00063332 -6.65804e-24)
(0.00155462 0.000169253 1.45161e-23)
(0.00497491 0.00216969 -1.70871e-23)
(0.0107591 0.00521971 0)
(0.0192155 0.00891933 0)
(0.0302855 0.0126895 0)
(0.0434769 0.015895 1.83858e-21)
(0.0579241 0.0179424 1.98155e-24)
(0.0725147 0.0183738 1.96733e-21)
(0.0860442 0.0169513 -1.56678e-21)
(0.0973614 0.0137007 -5.28866e-23)
(0.105491 0.00891453 -4.19759e-22)
(0.109729 0.00310762 3.42815e-23)
(0.109708 -0.00305672 -3.33025e-23)
(0.105432 -0.00886472 -4.02702e-22)
(0.0972734 -0.0136533 1.10721e-23)
(0.0859396 -0.0169079 -1.08231e-23)
(0.0724076 -0.0183361 3.60387e-21)
(0.0578276 -0.0179121 0)
(0.0434001 -0.0158732 1.93221e-21)
(0.0302324 -0.0126761 -2.6792e-23)
(0.0191846 -0.00891287 -1.54068e-21)
(0.0107446 -0.00521776 -1.27738e-24)
(0.00496987 -0.00216972 -1.76922e-23)
(0.00155345 -0.000169612 8.54186e-22)
(1.00564e-05 0.000633125 -9.66638e-24)
(-0.000304163 0.000468434 0)
(-0.000113553 7.57639e-05 0)
(-0.000147849 -0.000109804 -1.0712e-24)
(-0.000280301 -0.0005167 -3.74325e-23)
(0.000414433 -0.000486899 -7.10226e-22)
(0.00266284 0.000638357 1.49741e-23)
(0.007072 0.00297752 -1.75114e-23)
(0.01409 0.00632139 1.34165e-21)
(0.0239383 0.0102079 -1.55038e-21)
(0.0364289 0.0140282 2.66968e-23)
(0.0509488 0.0171555 -1.88845e-21)
(0.0665457 0.0190297 1.74041e-21)
(0.0820641 0.0192375 2.84166e-23)
(0.0962935 0.0175823 1.11945e-22)
(0.1081 0.0141184 -1.15548e-21)
(0.116536 0.00914952 3.55694e-22)
(0.12092 0.00318554 -3.44318e-23)
(0.1209 -0.00312639 0)
(0.116478 -0.00909259 0)
(0.108013 -0.0140658 1.02249e-23)
(0.0961877 -0.0175359 -1.40567e-21)
(0.0819538 -0.0191989 -1.74394e-21)
(0.0664439 -0.019 -1.71294e-21)
(0.0508653 -0.017135 0)
(0.0363689 -0.0140161 2.57611e-23)
(0.0239014 -0.0102025 1.44549e-21)
(0.0140715 -0.00632016 2.00057e-23)
(0.00706487 -0.00297805 1.07579e-21)
(0.00266093 -0.000639054 -1.31232e-23)
(0.000414112 0.000486516 1.06666e-23)
(-0.000280346 0.000516502 -1.73357e-22)
(-0.00014785 0.000109683 -4.11982e-25)
(-0.000170414 -0.000147455 1.33485e-23)
(-0.000161646 -0.000528266 4.39253e-22)
(0.00105168 -0.000255874 7.30781e-22)
(0.00412736 0.00119516 9.53867e-22)
(0.00962326 0.00384745 0)
(0.0179355 0.00743543 -1.38984e-21)
(0.0291792 0.0114425 1.04376e-22)
(0.043036 0.0152475 0)
(0.0587849 0.0182462 -1.66795e-21)
(0.075406 0.0199192 -1.80904e-21)
(0.0917205 0.0198998 -1.53113e-21)
(0.106528 0.0180313 1.16393e-22)
(0.118724 0.0143922 5.71268e-22)
(0.127395 0.00929262 -3.56454e-22)
(0.131889 0.00323185 -9.1401e-25)
(0.131869 -0.00316457 8.47597e-25)
(0.127338 -0.00922868 2.48735e-24)
(0.118638 -0.0143346 -3.28412e-24)
(0.106423 -0.0179822 1.02234e-22)
(0.0916086 -0.0198607 1.12092e-23)
(0.0753005 -0.0198905 1.75491e-21)
(0.0586958 -0.0182275 1.58493e-21)
(0.0429696 -0.0152374 -2.46511e-23)
(0.0291364 -0.0114387 -1.44804e-21)
(0.0179126 -0.00743544 -6.28417e-25)
(0.00961366 -0.00384882 -1.1384e-21)
(0.00412445 -0.0011964 9.26161e-22)
(0.00105111 0.000255194 -2.10925e-23)
(-0.00016172 0.000527926 1.91307e-22)
(-0.000170413 0.000147262 7.76439e-24)
(-0.000164125 -0.000186214 -1.32317e-23)
(9.92278e-05 -0.000492877 -2.46654e-22)
(0.00197504 5.80742e-05 -1.1821e-23)
(0.00598966 0.00182451 -3.63975e-23)
(0.0126552 0.00475793 1.77453e-23)
(0.0223019 0.00853738 2.05661e-23)
(0.0349244 0.0126023 1.44825e-21)
(0.0500789 0.0163366 2.44243e-23)
(0.0669526 0.0191681 3.25622e-21)
(0.084477 0.0206229 -2.38664e-23)
(0.101467 0.0203804 3.0312e-21)
(0.116745 0.0183206 1.33222e-21)
(0.129243 0.0145424 0)
(0.138089 0.00935772 -3.0304e-22)
(0.142662 0.00325146 0)
(0.142643 -0.00317627 0)
(0.138034 -0.00928692 0)
(0.129159 -0.0144797 4.5728e-22)
(0.116641 -0.0182688 1.30912e-21)
(0.101355 -0.0203407 1.37788e-21)
(0.0843692 -0.0205954 0)
(0.0668591 -0.0191517 -1.62789e-21)
(0.0500068 -0.0163291 1.45721e-21)
(0.0348759 -0.0126009 2.15822e-23)
(0.0222744 -0.00853919 -3.62186e-25)
(0.0126427 -0.00476058 -1.73043e-23)
(0.00598547 -0.00182656 -2.09489e-23)
(0.00197409 -5.92065e-05 0)
(9.90977e-05 0.000492316 2.8451e-22)
(-0.000164121 0.000185909 -5.89752e-23)
(-0.000104758 -0.000222949 0)
(0.000557431 -0.00040254 3.60799e-22)
(0.00323659 0.00044816 -1.32493e-23)
(0.00828695 0.0025092 -4.57193e-23)
(0.0161891 0.00568775 1.75999e-23)
(0.0271904 0.00960503 -1.98205e-23)
(0.0411565 0.0136709 1.36501e-21)
(0.0575295 0.0172888 -1.43362e-21)
(0.0754218 0.0199253 -1.58722e-21)
(0.093734 0.0211536 -2.22642e-23)
(0.111289 0.0206976 -1.43575e-21)
(0.126941 0.0184702 2.06056e-24)
(0.139668 0.0145864 8.35895e-24)
(0.148637 0.00935678 3.04471e-22)
(0.153264 0.0032486 -2.5233e-23)
(0.153246 -0.00316578 0)
(0.148585 -0.00927936 2.81462e-24)
(0.139587 -0.014519 -4.62483e-22)
(0.12684 -0.0184158 -9.88385e-24)
(0.111178 -0.0206575 -2.67555e-21)
(0.0936252 -0.0211276 -1.36764e-21)
(0.0753252 -0.0199115 -2.23399e-23)
(0.0574527 -0.0172843 -1.49886e-21)
(0.0411027 -0.0136724 4.14545e-23)
(0.0271583 -0.00960926 -1.37568e-25)
(0.0161735 -0.00569217 1.03595e-21)
(0.00828119 -0.00251241 -1.86702e-21)
(0.00323512 -0.000449959 0)
(0.000557204 0.000401642 -2.97248e-22)
(-0.000104751 0.000222473 5.26299e-23)
(3.96533e-05 -0.000254222 0)
(0.00127409 -0.000252442 -3.5803e-22)
(0.00488542 0.000903189 -1.43392e-23)
(0.0110517 0.00323123 -9.77244e-22)
(0.020241 0.00661662 -1.7312e-23)
(0.0325974 0.0106188 -1.17642e-21)
(0.0478561 0.0146353 -1.36528e-21)
(0.0653603 0.0181007 1.45269e-21)
(0.0841647 0.0205239 -2.17275e-23)
(0.103155 0.0215249 -1.34549e-21)
(0.121174 0.0208689 2.14451e-23)
(0.137117 0.0184981 0)
(0.150007 0.0145399 0)
(0.159057 0.00930015 0)
(0.163715 0.00322687 4.87529e-23)
(0.163698 -0.00313677 0)
(0.159008 -0.00921639 2.37527e-22)
(0.14993 -0.0144678 2.55532e-24)
(0.13702 -0.0184412 0)
(0.121066 -0.0208285 1.29617e-21)
(0.103047 -0.0215004 2.71816e-21)
(0.0840663 -0.0205129 -1.34466e-21)
(0.0652796 -0.0180997 1.27125e-21)
(0.0477974 -0.0146403 -1.81817e-26)
(0.0325606 -0.0106261 1.1388e-21)
(0.020222 -0.00662335 -1.07893e-21)
(0.0110441 -0.00323602 9.46896e-22)
(0.00488325 -0.000905934 -7.81978e-22)
(0.00127371 0.000251049 0)
(3.9663e-05 0.000253492 0)
(0.000309008 -0.000276577 0)
(0.0023141 -4.14975e-05 0)
(0.00696589 0.00140861 8.02397e-22)
(0.0143115 0.00397284 1.49104e-23)
(0.024822 0.00752566 -1.69021e-23)
(0.0385145 0.0115621 1.18182e-21)
(0.0550016 0.0154866 3.90303e-23)
(0.0735442 0.0187722 -2.0718e-23)
(0.093156 0.0209716 0)
(0.112722 0.0217501 1.34017e-21)
(0.131115 0.0209107 1.1708e-21)
(0.147273 0.0184206 -7.01689e-24)
(0.160271 0.0144163 3.83119e-22)
(0.169365 0.00919679 -6.62458e-25)
(0.174036 0.00318936 -2.2846e-23)
(0.174021 -0.0030924 1.67782e-23)
(0.169318 -0.00910702 -2.40662e-22)
(0.160198 -0.0143397 3.55858e-22)
(0.14718 -0.0183612 -9.35712e-22)
(0.13101 -0.0208701 0)
(0.112616 -0.0217273 -8.46651e-23)
(0.0930568 -0.0209637 2.55239e-21)
(0.0734606 -0.018775 -1.28969e-21)
(0.0549387 -0.0154956 9.17697e-26)
(0.0384733 -0.011573 -7.95407e-23)
(0.0247995 -0.0075353 9.66833e-22)
(0.0143018 -0.00397971 8.94839e-22)
(0.00696282 -0.00141265 7.98568e-22)
(0.00231349 3.93953e-05 1.15206e-23)
(0.000309015 0.000275474 0)
(0.000750792 -0.000286838 0)
(0.00374342 0.00022745 4.41277e-22)
(0.00951635 0.00194779 -1.62077e-21)
(0.018089 0.00471738 -9.23286e-22)
(0.0299377 0.00839769 -9.88605e-22)
(0.0449297 0.0124213 1.71543e-23)
(0.0625703 0.0162189 -1.8493e-23)
(0.0820552 0.0193056 0)
(0.102372 0.0212775 -1.20457e-21)
(0.122419 0.0218429 1.14746e-21)
(0.141102 0.0208383 -1.14888e-21)
(0.157411 0.0182524 8.14943e-24)
(0.170467 0.0142276 -7.25094e-22)
(0.179574 0.00905444 0)
(0.184244 0.00313876 0)
(0.184229 -0.00303536 -1.74526e-23)
(0.17953 -0.00895901 2.17864e-24)
(0.170399 -0.0141468 -3.30623e-23)
(0.157323 -0.0181906 9.33756e-22)
(0.141002 -0.0207973 1.02404e-21)
(0.122315 -0.0218217 -2.32128e-21)
(0.102274 -0.0212727 -1.24706e-21)
(0.0819698 -0.0193125 1.84947e-23)
(0.0625039 -0.0162323 -1.74122e-23)
(0.0448844 -0.0124363 -1.06802e-21)
(0.0299116 -0.00841086 -1.00624e-21)
(0.018077 -0.00472688 -9.36105e-22)
(0.00951218 -0.00195356 -7.30456e-22)
(0.00374248 -0.00023054 6.87658e-24)
(0.000750785 0.000285201 -5.20491e-24)
(0.00141917 -0.000282387 -5.60571e-22)
(0.0056262 0.00054778 -3.93879e-23)
(0.0125683 0.00250341 1.53692e-21)
(0.0224024 0.00544984 9.51457e-22)
(0.0355888 0.0092175 1.01282e-21)
(0.0518277 0.0131859 -1.61751e-23)
(0.0705389 0.0168297 1.73749e-23)
(0.0908687 0.0197053 0)
(0.111793 0.0214517 1.21768e-21)
(0.13223 0.0218164 -1.17583e-21)
(0.15113 0.0206658 0)
(0.167531 0.0180064 0)
(0.180605 0.0139842 3.48966e-22)
(0.189697 0.00887981 5.66457e-25)
(0.194353 0.00307735 1.81835e-23)
(0.194339 -0.002968 4.97833e-25)
(0.189658 -0.00877911 -4.95334e-25)
(0.180542 -0.0138994 -3.22854e-22)
(0.167449 -0.0179424 7.93712e-22)
(0.151035 -0.0206245 -1.96804e-21)
(0.13213 -0.0217967 1.13826e-21)
(0.111696 -0.0214499 -1.67655e-23)
(0.0907824 -0.0197164 1.05032e-21)
(0.0704698 -0.0168478 0)
(0.0517787 -0.0132057 1.55327e-23)
(0.0355592 -0.0092348 -1.42011e-23)
(0.0223878 -0.00546257 0)
(0.0125629 -0.0025114 1.45104e-21)
(0.00562484 -0.000552206 0)
(0.00141913 0.000280001 -5.46783e-22)
(0.00237355 -0.000261396 5.91147e-22)
(0.00802205 0.00090959 3.08086e-22)
(0.0161464 0.00305872 -7.63371e-22)
(0.0272651 0.00615714 1.35093e-23)
(0.0417713 0.00997193 -1.5047e-23)
(0.0591904 0.0138488 9.47913e-22)
(0.0788838 0.0173189 -3.2321e-23)
(0.0999609 0.0199774 1.69784e-23)
(0.121398 0.0215044 1.04106e-21)
(0.142145 0.0216833 -1.54257e-23)
(0.161194 0.0204063 -9.03584e-22)
(0.177636 0.0176945 1.42537e-24)
(0.190692 0.0136953 3.01142e-22)
(0.199747 0.00867872 -5.23891e-25)
(0.204377 0.00300713 -1.83113e-23)
(0.204365 -0.00289232 -4.54069e-25)
(0.199711 -0.00857315 2.28125e-24)
(0.190634 -0.0136068 2.78455e-22)
(0.17756 -0.0176283 -8.12532e-23)
(0.161105 -0.0203645 8.78766e-23)
(0.142049 -0.021665 0)
(0.121304 -0.0215057 -9.82833e-22)
(0.0998748 -0.0199928 -2.05335e-21)
(0.0788128 -0.017342 1.51516e-23)
(0.0591383 -0.0138737 8.88073e-22)
(0.0417383 -0.00999393 -1.32962e-23)
(0.0272479 -0.00617372 0)
(0.0161395 -0.00306949 -7.31692e-22)
(0.00802014 -0.000915775 5.40291e-25)
(0.00237346 0.000257986 5.92587e-22)
(0.0036767 -0.000222989 9.43578e-22)
(0.0109834 0.00130048 -4.57243e-22)
(0.0202683 0.00359872 -6.85234e-22)
(0.0326863 0.00682813 0)
(0.0484762 0.01065 0)
(0.0669977 0.0144056 -9.65341e-22)
(0.0875815 0.0176887 1.51134e-23)
(0.10931 0.0201292 9.58946e-22)
(0.131172 0.0214464 -8.77383e-23)
(0.152151 0.0214558 9.12228e-22)
(0.171291 0.0200716 9.40346e-22)
(0.187729 0.017327 -1.15313e-23)
(0.200735 0.0133691 -2.91936e-22)
(0.209734 0.0084562 0)
(0.214329 0.0029298 0)
(0.214318 -0.00281003 0)
(0.209702 -0.0083462 0)
(0.200683 -0.0132771 -2.71633e-22)
(0.18766 -0.0172588 -7.3096e-22)
(0.171208 -0.0200294 1.65585e-21)
(0.152061 -0.0214388 8.86654e-22)
(0.13108 -0.0214506 7.29404e-23)
(0.109225 -0.0201488 1.02565e-22)
(0.0875095 -0.017717 8.87872e-26)
(0.0669431 -0.014436 -8.24142e-23)
(0.0484401 -0.0106772 9.93351e-25)
(0.0326665 -0.00684918 -1.20297e-23)
(0.0202597 -0.00361288 0)
(0.0109809 -0.00130891 0)
(0.00367653 0.000218209 0)
(0.00539249 -0.00016731 -2.21875e-21)
(0.0145537 0.00170651 -4.6153e-22)
(0.0249456 0.00411088 6.98655e-22)
(0.0386709 0.00745345 -7.85499e-22)
(0.0556903 0.011243 0)
(0.0752283 0.0148549 0)
(0.0966089 0.0179433 0)
(0.118895 0.020169 -9.71625e-22)
(0.141097 0.0212885 -1.8529e-21)
(0.162241 0.0211454 -9.62511e-22)
(0.181417 0.0196727 7.85337e-22)
(0.197812 0.0169133 5.92235e-24)
(0.210741 0.0130124 -2.51176e-22)
(0.219667 0.00821662 0)
(0.22422 0.00284683 0)
(0.22421 -0.00272263 0)
(0.219639 -0.00810263 1.52947e-24)
(0.210694 -0.0129173 2.28827e-22)
(0.197749 -0.0168432 0)
(0.181341 -0.0196301 -7.98677e-22)
(0.162157 -0.0211295 -8.7966e-22)
(0.14101 -0.0212955 9.16101e-22)
(0.118812 -0.0201928 9.10084e-22)
(0.0965368 -0.0179768 8.04212e-22)
(0.0751717 -0.014891 -8.36483e-22)
(0.0556515 -0.011276 1.23622e-23)
(0.0386485 -0.00747958 2.97055e-25)
(0.0249353 -0.00412906 -1.0178e-23)
(0.0145504 -0.00171776 0)
(0.00539219 0.000160743 0)
(0.00758354 -9.55046e-05 2.71034e-21)
(0.0187658 0.0021133 2.3045e-22)
(0.0301847 0.00458563 0)
(0.0452194 0.00802527 8.08827e-22)
(0.0633967 0.0117446 0)
(0.0838597 0.0151975 0)
(0.105944 0.018088 7.85194e-22)
(0.128696 0.0201055 0)
(0.151162 0.0210412 7.88559e-23)
(0.172406 0.0207629 -1.21791e-23)
(0.191569 0.0192196 -7.70961e-22)
(0.207887 0.0164618 -4.34215e-24)
(0.220717 0.0126315 4.88325e-22)
(0.229556 0.00796376 7.36656e-23)
(0.234059 0.0027595 0)
(0.234051 -0.00263139 0)
(0.229531 -0.00784623 1.39579e-24)
(0.220675 -0.0125336 -2.32976e-22)
(0.207831 -0.0163898 0)
(0.191501 -0.0191765 0)
(0.172328 -0.0207481 1.24753e-23)
(0.15108 -0.0210508 -1.21179e-23)
(0.128617 -0.0201333 7.68938e-22)
(0.105872 -0.0181267 -8.15823e-22)
(0.083802 -0.0152395 1.10657e-23)
(0.0633556 -0.0117837 -1.02968e-23)
(0.0451946 -0.00805704 0)
(0.0301726 -0.00460849 -6.19518e-22)
(0.0187616 -0.00212799 -2.06036e-23)
(0.00758308 8.66611e-05 -1.42539e-21)
(0.0103089 -9.61133e-06 -1.53119e-21)
(0.0236415 0.00250706 2.31637e-22)
(0.0359876 0.00501644 7.17281e-22)
(0.0523282 0.00853703 6.56783e-22)
(0.071575 0.012151 -1.10143e-23)
(0.0928694 0.0154365 1.12075e-23)
(0.115564 0.0181294 -9.0589e-23)
(0.138697 0.0199481 -7.51808e-22)
(0.161352 0.0207148 1.58867e-21)
(0.18264 0.0203184 -1.1224e-23)
(0.201748 0.0187212 1.14643e-23)
(0.217957 0.0159797 2.74427e-22)
(0.230667 0.0122318 -4.41654e-22)
(0.239407 0.00770092 -7.44082e-23)
(0.243856 0.0026689 -1.27433e-23)
(0.243849 -0.00253741 -8.67713e-24)
(0.239386 -0.00758029 3.08142e-25)
(0.230631 -0.0121314 -1.91902e-22)
(0.217908 -0.0159061 -2.55389e-22)
(0.201686 -0.0186777 0)
(0.182569 -0.0203045 0)
(0.161276 -0.0207267 0)
(0.138621 -0.0199797 -7.77793e-22)
(0.115494 -0.0181732 1.0861e-23)
(0.0928112 -0.0154845 9.92781e-24)
(0.071532 -0.0121964 -1.9336e-23)
(0.052301 -0.00857495 9.23306e-24)
(0.0359738 -0.00504461 -1.36266e-23)
(0.0236363 -0.00252583 1.81649e-22)
(0.0103082 -2.06656e-06 1.51274e-21)
(0.0136218 8.76214e-05 0)
(0.0291917 0.00287546 -9.83708e-22)
(0.042353 0.00539951 4.08881e-23)
(0.0599888 0.00898325 -6.65589e-22)
(0.0802023 0.0124605 -5.42597e-22)
(0.102235 0.0155767 9.84551e-24)
(0.125448 0.0180749 -7.41349e-22)
(0.148879 0.0197061 1.46176e-21)
(0.171657 0.0203192 -7.76309e-22)
(0.192936 0.0198213 6.67644e-22)
(0.21195 0.0181858 5.98836e-24)
(0.228025 0.0154736 -2.75565e-22)
(0.240597 0.0118181 2.1421e-22)
(0.249229 0.00743091 -6.26407e-23)
(0.253618 0.00257598 1.31889e-23)
(0.253612 -0.00244163 1.58398e-23)
(0.249211 -0.00730765 1.157e-24)
(0.240567 -0.0117155 1.91798e-22)
(0.227983 -0.0153986 2.52765e-22)
(0.211896 -0.0181418 4.16822e-24)
(0.192873 -0.0198081 1.04e-23)
(0.171587 -0.0203332 -1.01398e-23)
(0.148807 -0.0197412 6.26704e-22)
(0.125381 -0.0181235 0)
(0.102177 -0.0156308 -5.55799e-22)
(0.0801581 -0.0125125 0)
(0.0599597 -0.00902775 4.92761e-22)
(0.0423375 -0.00543361 6.86411e-22)
(0.0291855 -0.00289899 -1.72295e-22)
(0.0136208 -0.000102749 -2.02378e-21)
(0.0175679 0.000192967 -2.3584e-21)
(0.0354168 0.00320837 7.16652e-22)
(0.049277 0.00573337 -8.08419e-22)
(0.0681885 0.00935939 0)
(0.0892539 0.0126741 1.02193e-21)
(0.111934 0.0156241 -5.49956e-22)
(0.135577 0.0179322 -1.9663e-23)
(0.159228 0.0193888 -5.86694e-23)
(0.182067 0.0198637 0)
(0.20329 0.0192802 -6.82113e-22)
(0.222176 0.0176207 9.6625e-24)
(0.238093 0.0149494 -3.38417e-24)
(0.250513 0.0113943 4.62347e-24)
(0.259027 0.0071562 4.32424e-24)
(0.263353 0.00248156 -1.17748e-23)
(0.263348 -0.00234486 -7.21583e-24)
(0.259012 -0.00703074 -4.68442e-23)
(0.250489 -0.0112899 -1.04389e-24)
(0.238058 -0.0148731 0)
(0.22213 -0.0175763 0)
(0.203234 -0.0192676 0)
(0.182004 -0.0198796 0)
(0.159162 -0.0194272 -6.44172e-22)
(0.135513 -0.0179855 8.91079e-24)
(0.111877 -0.0156841 5.74371e-22)
(0.0892091 -0.0127328 -7.35251e-24)
(0.0681578 -0.0094108 -5.0706e-22)
(0.0492598 -0.00577393 4.05926e-24)
(0.0354096 -0.00323733 6.04833e-22)
(0.0175666 -0.000212203 4.46318e-21)
(0.0221841 0.000302974 2.49368e-21)
(0.0423086 0.00349821 6.0982e-24)
(0.0567532 0.00601818 9.89084e-22)
(0.0769101 0.0096619 0)
(0.0987041 0.0127948 -4.87143e-22)
(0.121946 0.0155857 5.61652e-22)
(0.145931 0.0177094 5.35006e-22)
(0.16973 0.0190054 -5.57639e-23)
(0.192574 0.0193571 -5.81417e-22)
(0.213697 0.0187031 -5.67934e-22)
(0.232425 0.0170325 5.01444e-24)
(0.248163 0.014412 7.73942e-25)
(0.260418 0.0109642 4.24705e-24)
(0.268807 0.0068789 1.09807e-22)
(0.273066 0.00238634 1.18033e-23)
(0.273063 -0.00224778 0)
(0.268796 -0.00675169 4.88301e-23)
(0.260399 -0.0108583 -9.46337e-25)
(0.248135 -0.0143347 0)
(0.232386 -0.0169876 0)
(0.213649 -0.0186909 8.56318e-24)
(0.192517 -0.0193746 -5.30441e-22)
(0.16967 -0.0190468 -5.09338e-22)
(0.14587 -0.0177671 -4.62674e-22)
(0.121891 -0.0156513 -5.59458e-25)
(0.0986593 -0.0128602 3.63403e-22)
(0.0768782 -0.00972045 2.34046e-22)
(0.0567345 -0.00606566 -7.7352e-24)
(0.0423003 -0.00353324 2.18789e-22)
(0.0221825 -0.000327001 -5.12986e-21)
(0.0274975 0.000414215 0)
(0.0498511 0.00374014 0)
(0.0647734 0.00625509 -1.03095e-21)
(0.0861321 0.00988831 4.7286e-24)
(0.108527 0.0128277 -4.03924e-22)
(0.132249 0.0154686 4.52671e-22)
(0.156492 0.0174147 -5.51485e-22)
(0.180373 0.0185649 -5.79499e-22)
(0.203168 0.0188076 5.79206e-22)
(0.224154 0.0180971 5.43211e-23)
(0.242696 0.0164271 -4.58917e-22)
(0.258238 0.0138661 0)
(0.270317 0.0105308 0)
(0.278574 0.00660083 -5.34667e-23)
(0.282764 0.00229092 0)
(0.282762 -0.00215099 2.02668e-25)
(0.278566 -0.0064723 -2.02149e-25)
(0.270303 -0.0104237 1.30358e-22)
(0.258216 -0.0137879 0)
(0.242664 -0.0163818 0)
(0.224113 -0.0180853 4.62952e-22)
(0.203119 -0.0188265 5.20105e-22)
(0.180318 -0.0186089 5.08609e-22)
(0.156436 -0.0174764 4.78212e-22)
(0.132196 -0.0155396 1.25127e-23)
(0.108483 -0.0128996 -3.7843e-22)
(0.0860996 -0.00995412 -3.30772e-22)
(0.0647535 -0.00630987 -1.07906e-21)
(0.0498418 -0.00378182 2.33456e-22)
(0.0274955 -0.000443714 2.7876e-21)
(0.0335254 0.000523497 0)
(0.0580226 0.00393188 0)
(0.0733275 0.00644572 -1.29452e-21)
(0.0958296 0.0100374 2.13964e-23)
(0.118697 0.0127795 7.69985e-22)
(0.142823 0.0152805 -4.53084e-22)
(0.167243 0.0170564 -4.22844e-22)
(0.191143 0.0180755 4.67007e-22)
(0.213843 0.0182229 0)
(0.234657 0.0174688 5.07848e-22)
(0.252989 0.0158097 9.01525e-22)
(0.268319 0.0133156 6.3513e-25)
(0.280212 0.0100969 3.57473e-24)
(0.288333 0.00632355 -9.43094e-25)
(0.292451 0.00219581 0)
(0.29245 -0.00205498 0)
(0.288329 -0.00619412 7.75635e-25)
(0.280203 -0.00998888 -2.49518e-22)
(0.268304 -0.0132366 1.54205e-22)
(0.252965 -0.015764 3.78511e-22)
(0.234623 -0.0174573 -4.52331e-22)
(0.213801 -0.0182429 -6.82543e-24)
(0.191095 -0.0181219 -4.0375e-22)
(0.167192 -0.0171218 5.83011e-24)
(0.142773 -0.0153565 3.08256e-22)
(0.118654 -0.0128578 -5.0143e-24)
(0.0957968 -0.0101105 8.701e-23)
(0.0733066 -0.00650807 -1.17484e-22)
(0.0580124 -0.00398072 -1.12078e-21)
(0.0335231 -0.000559125 0)
(0.0402755 0.00062803 0)
(0.0667973 0.00407337 1.55969e-21)
(0.0824029 0.0065917 1.32171e-21)
(0.105974 0.0101095 -2.04062e-23)
(0.129189 0.012658 -7.31641e-22)
(0.15365 0.0150286 3.11087e-22)
(0.178167 0.0166427 4.68475e-23)
(0.202032 0.0175455 -4.80044e-22)
(0.224592 0.0176099 1.21659e-25)
(0.245203 0.0168242 4.95862e-25)
(0.263305 0.015185 -4.20392e-22)
(0.278409 0.0127638 1.62162e-22)
(0.290108 0.00966468 1.28968e-22)
(0.298088 0.00604839 -8.66134e-25)
(0.302133 0.00210145 0)
(0.302132 -0.00196018 0)
(0.298087 -0.00591847 6.97149e-25)
(0.290104 -0.00955615 1.17626e-22)
(0.2784 -0.0126843 -1.55483e-22)
(0.263288 -0.015139 -3.81034e-22)
(0.245177 -0.0168128 0)
(0.224558 -0.0176309 3.76321e-22)
(0.201991 -0.0175938 4.03264e-22)
(0.178121 -0.0167113 1.04649e-23)
(0.153604 -0.0151094 -3.19207e-22)
(0.129148 -0.0127424 0)
(0.105942 -0.0101898 1.07822e-23)
(0.0823813 -0.00666175 1.2663e-21)
(0.0667864 -0.00412979 1.57251e-21)
(0.0402728 -0.000670395 -3.61092e-21)
(0.0477463 0.000725526 0)
(0.0761467 0.00416635 -3.39074e-21)
(0.0919847 0.00669443 -1.62651e-21)
(0.116535 0.0101065 0)
(0.13998 0.0124719 1.45451e-24)
(0.16471 0.0147202 -6.26108e-23)
(0.18925 0.0161814 4.20143e-23)
(0.213029 0.016982 0)
(0.235409 0.0169751 0)
(0.255789 0.0161685 3.76787e-22)
(0.273642 0.0145571 1.83619e-22)
(0.288509 0.0122138 -1.66179e-22)
(0.300007 0.00923624 -1.28813e-22)
(0.307843 0.00577651 3.82302e-23)
(0.311812 0.00200823 -4.13892e-24)
(0.311812 -0.00186694 0)
(0.307844 -0.00564649 2.75885e-23)
(0.300007 -0.00912749 0)
(0.288506 -0.0121341 -2.31756e-24)
(0.273632 -0.0145109 -1.49432e-22)
(0.255771 -0.0161572 -3.27113e-22)
(0.235383 -0.0169968 -4.60927e-23)
(0.212994 -0.017032 0)
(0.18921 -0.0162529 0)
(0.164668 -0.0148052 0)
(0.139942 -0.0125619 0)