# Wall shear stress
# Time       	patch        	min          	max          
0.000000e+00	Bottom	(0.000000e+00 0.000000e+00 0.000000e+00)	(0.000000e+00 0.000000e+00 0.000000e+00)
5.000000e-03	Bottom	(-3.574467e+00 -2.183941e+00 -1.479528e-17)	(3.621331e+00 2.184220e+00 2.160213e-17)
1.000000e-02	Bottom	(-7.097609e+00 -4.246803e+00 -2.901735e-17)	(7.181206e+00 4.246482e+00 4.133215e-17)
1.500000e-02	Bottom	(-7.484750e+00 -4.471277e+00 -3.059420e-17)	(7.571857e+00 4.470783e+00 4.349429e-17)
2.000000e-02	Bottom	(-7.512605e+00 -4.487355e+00 -3.070733e-17)	(7.599980e+00 4.486853e+00 4.364997e-17)
2.500000e-02	Bottom	(-7.516398e+00 -4.489586e+00 -3.070960e-17)	(7.603824e+00 4.489076e+00 4.366364e-17)
